<event>
 4    1  0.4441180E+000  0.1851870E+03  0.7546771E-02  0.1162875E+00
         21   -1    0    0  501  502  0.00000000000E+00  0.00000000000E+00  0.19870044390E+03  0.19870044390E+03  0.00000000000E+00 0.  1.
         21   -1    0    0  502  503 -0.00000000000E+00 -0.00000000000E+00 -0.25831967576E+03  0.25831967576E+03  0.00000000000E+00 0.  1.
          6    1    1    2  501    0 -0.44551033548E+02  0.48789799932E+02  0.10182964052E+03  0.21133744310E+03  0.17300000000E+03 0.  1.
         -6    1    1    2    0  503  0.44551033548E+02 -0.48789799932E+02 -0.16144887238E+03  0.24568267656E+03  0.17300000000E+03 0.  1.
<mgrwt>
<rscale>  2 0.18518704E+03</rscale>
<asrwt>0</asrwt>
<pdfrwt beam="1">  1       21 0.30569299E-01 0.18518704E+03</pdfrwt>
<pdfrwt beam="2">  1       21 0.39741488E-01 0.18518704E+03</pdfrwt>
<totfact> 0.62896261E+04</totfact>
</mgrwt>
</event>
<event>
 4    1  0.4441180E+000  0.2271924E+03  0.7546771E-02  0.1128632E+00
         21   -1    0    0  501  502  0.00000000000E+00  0.00000000000E+00  0.35073814153E+03  0.35073814153E+03  0.00000000000E+00 0.  1.
         21   -1    0    0  502  503 -0.00000000000E+00 -0.00000000000E+00 -0.27578397124E+03  0.27578397124E+03  0.00000000000E+00 0.  1.
          6    1    1    2  501    0 -0.17034122004E+01  0.14725659745E+03  0.25140835849E+03  0.33885479165E+03  0.17300000000E+03 0.  1.
         -6    1    1    2    0  503  0.17034122004E+01 -0.14725659745E+03 -0.17645418820E+03  0.28766732112E+03  0.17300000000E+03 0.  1.
<mgrwt>
<rscale>  2 0.22719245E+03</rscale>
<asrwt>0</asrwt>
<pdfrwt beam="1">  1       21 0.53959714E-01 0.22719245E+03</pdfrwt>
<pdfrwt beam="2">  1       21 0.42428303E-01 0.22719245E+03</pdfrwt>
<totfact> 0.17005488E+04</totfact>
</mgrwt>
</event>
<event>
 4    1  0.4441180E+000  0.1741460E+03  0.7546771E-02  0.1173592E+00
         21   -1    0    0  503  502  0.00000000000E+00  0.00000000000E+00  0.11370462198E+04  0.11370462198E+04  0.00000000000E+00 0. -1.
         21   -1    0    0  501  503 -0.00000000000E+00 -0.00000000000E+00 -0.34547652636E+02  0.34547652636E+02  0.00000000000E+00 0. -1.
          6    1    1    2  501    0  0.91317548174E+00  0.19924966284E+02  0.27154944192E+03  0.32259252560E+03  0.17300000000E+03 0. -1.
         -6    1    1    2    0  502 -0.91317548174E+00 -0.19924966284E+02  0.83094912523E+03  0.84900134681E+03  0.17300000000E+03 0. -1.
<mgrwt>
<rscale>  2 0.17414603E+03</rscale>
<asrwt>0</asrwt>
<pdfrwt beam="1">  1       21 0.17493016E+00 0.17414603E+03</pdfrwt>
<pdfrwt beam="2">  1       21 0.53150244E-02 0.17414603E+03</pdfrwt>
<totfact> 0.48353767E+04</totfact>
</mgrwt>
</event>
<event>
 4    1  0.4441180E+000  0.2252283E+03  0.7546771E-02  0.1130044E+00
         21   -1    0    0  501  502  0.00000000000E+00  0.00000000000E+00  0.21402511776E+03  0.21402511776E+03  0.00000000000E+00 0. -1.
         21   -1    0    0  502  503 -0.00000000000E+00 -0.00000000000E+00 -0.36199844371E+03  0.36199844371E+03  0.00000000000E+00 0. -1.
          6    1    1    2  501    0  0.11822315679E+03  0.82595709293E+02  0.95243686499E+02  0.24453859780E+03  0.17300000000E+03 0. -1.
         -6    1    1    2    0  503 -0.11822315679E+03 -0.82595709293E+02 -0.24321701245E+03  0.33148496367E+03  0.17300000000E+03 0. -1.
<mgrwt>
<rscale>  2 0.22522825E+03</rscale>
<asrwt>0</asrwt>
<pdfrwt beam="1">  1       21 0.32926941E-01 0.22522825E+03</pdfrwt>
<pdfrwt beam="2">  1       21 0.55692068E-01 0.22522825E+03</pdfrwt>
<totfact> 0.26498763E+04</totfact>
</mgrwt>
</event>
<event>
 4    1  0.4441180E+000  0.2371838E+03  0.7546771E-02  0.1121683E+00
         21   -1    0    0  501  502  0.00000000000E+00  0.00000000000E+00  0.40906645673E+03  0.40906645673E+03  0.00000000000E+00 0. -1.
         21   -1    0    0  502  503 -0.00000000000E+00 -0.00000000000E+00 -0.17031870147E+03  0.17031870147E+03  0.00000000000E+00 0. -1.
          6    1    1    2  501    0  0.15880139186E+03 -0.33306022559E+02  0.24649350478E+03  0.34207487645E+03  0.17300000000E+03 0. -1.
         -6    1    1    2    0  503 -0.15880139186E+03  0.33306022559E+02 -0.77457495261E+01  0.23731028176E+03  0.17300000000E+03 0. -1.
<mgrwt>
<rscale>  2 0.23718384E+03</rscale>
<asrwt>0</asrwt>
<pdfrwt beam="1">  1       21 0.62933301E-01 0.23718384E+03</pdfrwt>
<pdfrwt beam="2">  1       21 0.26202877E-01 0.23718384E+03</pdfrwt>
<totfact> 0.31635868E+04</totfact>
</mgrwt>
</event>
<event>
 4    1  0.4441180E+000  0.2044143E+03  0.7546771E-02  0.1146067E+00
         21   -1    0    0  501  502  0.00000000000E+00  0.00000000000E+00  0.71728936144E+02  0.71728936144E+02  0.00000000000E+00 0.  1.
         21   -1    0    0  502  503 -0.00000000000E+00 -0.00000000000E+00 -0.87201318652E+03  0.87201318652E+03  0.00000000000E+00 0.  1.
          6    1    1    2  501    0  0.40409304811E+02 -0.10111036089E+03 -0.12827076984E+03  0.24132676476E+03  0.17300000000E+03 0.  1.
         -6    1    1    2    0  503 -0.40409304811E+02  0.10111036089E+03 -0.67201348054E+03  0.70241535791E+03  0.17300000000E+03 0.  1.
<mgrwt>
<rscale>  2 0.20441433E+03</rscale>
<asrwt>0</asrwt>
<pdfrwt beam="1">  1       21 0.11035222E-01 0.20441433E+03</pdfrwt>
<pdfrwt beam="2">  1       21 0.13415586E+00 0.20441433E+03</pdfrwt>
<totfact> 0.27003326E+04</totfact>
</mgrwt>
</event>
<event>
 4    1  0.4441180E+000  0.1999401E+03  0.7546771E-02  0.1149790E+00
         21   -1    0    0  503  502  0.00000000000E+00  0.00000000000E+00  0.34238197165E+02  0.34238197165E+02  0.00000000000E+00 0. -1.
         21   -1    0    0  501  503 -0.00000000000E+00 -0.00000000000E+00 -0.18737959525E+04  0.18737959525E+04  0.00000000000E+00 0.  1.
          6    1    1    2  501    0 -0.39941435984E+02 -0.91933176108E+02 -0.15054610822E+04  0.15186800509E+04  0.17300000000E+03 0.  1.
         -6    1    1    2    0  502  0.39941435984E+02  0.91933176108E+02 -0.33409667316E+03  0.38935409873E+03  0.17300000000E+03 0. -1.
<mgrwt>
<rscale>  2 0.19994006E+03</rscale>
<asrwt>0</asrwt>
<pdfrwt beam="1">  1       21 0.52674140E-02 0.19994006E+03</pdfrwt>
<pdfrwt beam="2">  1       21 0.28827635E+00 0.19994006E+03</pdfrwt>
<totfact> 0.97436470E+03</totfact>
</mgrwt>
</event>
<event>
 4    1  0.4441180E+000  0.1893647E+03  0.7546771E-02  0.1159036E+00
         21   -1    0    0  501  502  0.00000000000E+00  0.00000000000E+00  0.11751274598E+03  0.11751274598E+03  0.00000000000E+00 0.  1.
         21   -1    0    0  502  503 -0.00000000000E+00 -0.00000000000E+00 -0.46663868015E+03  0.46663868015E+03  0.00000000000E+00 0.  1.
          6    1    1    2  501    0 -0.60377180742E+02  0.47797500148E+02 -0.27419723871E+01  0.18938459121E+03  0.17300000000E+03 0.  1.
         -6    1    1    2    0  503  0.60377180742E+02 -0.47797500148E+02 -0.34638396178E+03  0.39476683492E+03  0.17300000000E+03 0.  1.
<mgrwt>
<rscale>  2 0.18936474E+03</rscale>
<asrwt>0</asrwt>
<pdfrwt beam="1">  1       21 0.18078884E-01 0.18936474E+03</pdfrwt>
<pdfrwt beam="2">  1       21 0.71790567E-01 0.18936474E+03</pdfrwt>
<totfact> 0.48879272E+04</totfact>
</mgrwt>
</event>
<event>
 4    1  0.4441180E+000  0.1887399E+03  0.7546771E-02  0.1159603E+00
         21   -1    0    0  503  502  0.00000000000E+00  0.00000000000E+00  0.32018127194E+03  0.32018127194E+03  0.00000000000E+00 0. -1.
         21   -1    0    0  501  503 -0.00000000000E+00 -0.00000000000E+00 -0.11166332974E+03  0.11166332974E+03  0.00000000000E+00 0. -1.
          6    1    1    2  501    0  0.32552447913E+02  0.68074013199E+02  0.11726778722E+03  0.22220366122E+03  0.17300000000E+03 0. -1.
         -6    1    1    2    0  502 -0.32552447913E+02 -0.68074013199E+02  0.91250154974E+02  0.20964094047E+03  0.17300000000E+03 0. -1.
<mgrwt>
<rscale>  2 0.18873986E+03</rscale>
<asrwt>0</asrwt>
<pdfrwt beam="1">  1       21 0.49258657E-01 0.18873986E+03</pdfrwt>
<pdfrwt beam="2">  1       21 0.17178974E-01 0.18873986E+03</pdfrwt>
<totfact> 0.12045743E+05</totfact>
</mgrwt>
</event>
<event>
 4    1  0.4441180E+000  0.1827970E+03  0.7546771E-02  0.1165123E+00
         21   -1    0    0  501  502  0.00000000000E+00  0.00000000000E+00  0.69951293252E+03  0.69951293252E+03  0.00000000000E+00 0. -1.
         21   -1    0    0  502  503 -0.00000000000E+00 -0.00000000000E+00 -0.47791482841E+02  0.47791482841E+02  0.00000000000E+00 0.  1.
          6    1    1    2  501    0 -0.43449153507E+02  0.39973941242E+02  0.33403902831E+03  0.38078447625E+03  0.17300000000E+03 0. -1.
         -6    1    1    2    0  503  0.43449153507E+02 -0.39973941242E+02  0.31768242137E+03  0.36651993911E+03  0.17300000000E+03 0.  1.
<mgrwt>
<rscale>  2 0.18279700E+03</rscale>
<asrwt>0</asrwt>
<pdfrwt beam="1">  1       21 0.10761737E+00 0.18279700E+03</pdfrwt>
<pdfrwt beam="2">  1       21 0.73525363E-02 0.18279700E+03</pdfrwt>
<totfact> 0.96072425E+04</totfact>
</mgrwt>
</event>
<event>
 4    1  0.4441180E+000  0.2032867E+03  0.7546771E-02  0.1146995E+00
         21   -1    0    0  503  502  0.00000000000E+00  0.00000000000E+00  0.21266912238E+03  0.21266912238E+03  0.00000000000E+00 0.  1.
         21   -1    0    0  501  503 -0.00000000000E+00 -0.00000000000E+00 -0.31744790132E+03  0.31744790132E+03  0.00000000000E+00 0.  1.
          6    1    1    2  501    0  0.87626922964E+02  0.60975302189E+02 -0.21746658058E+03  0.29768637653E+03  0.17300000000E+03 0.  1.
         -6    1    1    2    0  502 -0.87626922964E+02 -0.60975302189E+02  0.11268780164E+03  0.23243064717E+03  0.17300000000E+03 0.  1.
<mgrwt>
<rscale>  2 0.20328666E+03</rscale>
<asrwt>0</asrwt>
<pdfrwt beam="1">  1       21 0.32718327E-01 0.20328666E+03</pdfrwt>
<pdfrwt beam="2">  1       21 0.48838138E-01 0.20328666E+03</pdfrwt>
<totfact> 0.35776489E+04</totfact>
</mgrwt>
</event>
<event>
 4    1  0.4441180E+000  0.2309828E+03  0.7546771E-02  0.1125950E+00
         21   -1    0    0  501  502  0.00000000000E+00  0.00000000000E+00  0.17952482826E+03  0.17952482826E+03  0.00000000000E+00 0. -1.
         21   -1    0    0  502  503 -0.00000000000E+00 -0.00000000000E+00 -0.35950867339E+03  0.35950867339E+03  0.00000000000E+00 0. -1.
          6    1    1    2  501    0  0.21658762989E+02 -0.15150897633E+03 -0.20220370573E+03  0.30698438158E+03  0.17300000000E+03 0. -1.
         -6    1    1    2    0  503 -0.21658762989E+02  0.15150897633E+03  0.22219860603E+02  0.23204912008E+03  0.17300000000E+03 0. -1.
<mgrwt>
<rscale>  2 0.23098284E+03</rscale>
<asrwt>0</asrwt>
<pdfrwt beam="1">  1       21 0.27619205E-01 0.23098284E+03</pdfrwt>
<pdfrwt beam="2">  1       21 0.55309026E-01 0.23098284E+03</pdfrwt>
<totfact> 0.37834800E+04</totfact>
</mgrwt>
</event>
<event>
 4    1  0.4441180E+000  0.2588249E+03  0.7546771E-02  0.1107851E+00
         21   -1    0    0  503  502  0.00000000000E+00  0.00000000000E+00  0.38251774930E+03  0.38251774930E+03  0.00000000000E+00 0.  1.
         21   -1    0    0  501  503 -0.00000000000E+00 -0.00000000000E+00 -0.25619575911E+03  0.25619575911E+03  0.00000000000E+00 0. -1.
          6    1    1    2  501    0 -0.17699662994E+03 -0.75720071345E+02 -0.11648140339E+03  0.28382785901E+03  0.17300000000E+03 0. -1.
         -6    1    1    2    0  502  0.17699662994E+03  0.75720071345E+02  0.24280339358E+03  0.35488564939E+03  0.17300000000E+03 0.  1.
<mgrwt>
<rscale>  2 0.25882491E+03</rscale>
<asrwt>0</asrwt>
<pdfrwt beam="1">  1       21 0.58848885E-01 0.25882491E+03</pdfrwt>
<pdfrwt beam="2">  1       21 0.39414732E-01 0.25882491E+03</pdfrwt>
<totfact> 0.16153097E+04</totfact>
</mgrwt>
</event>
<event>
 4    1  0.4441180E+000  0.1819411E+03  0.7546771E-02  0.1165938E+00
         21   -1    0    0  503  502  0.00000000000E+00  0.00000000000E+00  0.26750531441E+03  0.26750531441E+03  0.00000000000E+00 0. -1.
         21   -1    0    0  501  503 -0.00000000000E+00 -0.00000000000E+00 -0.21071397951E+03  0.21071397951E+03  0.00000000000E+00 0.  1.
          6    1    1    2  501    0 -0.15409303186E+02 -0.54185834579E+02 -0.12521862321E+03  0.22086705253E+03  0.17300000000E+03 0.  1.
         -6    1    1    2    0  502  0.15409303186E+02  0.54185834579E+02  0.18200995811E+03  0.25735224138E+03  0.17300000000E+03 0. -1.
<mgrwt>
<rscale>  2 0.18194107E+03</rscale>
<asrwt>0</asrwt>
<pdfrwt beam="1">  1       21 0.41154664E-01 0.18194107E+03</pdfrwt>
<pdfrwt beam="2">  1       21 0.32417535E-01 0.18194107E+03</pdfrwt>
<totfact> 0.52322240E+04</totfact>
</mgrwt>
</event>
<event>
 4    1  0.4441180E+000  0.1977888E+03  0.7546771E-02  0.1151618E+00
         21   -1    0    0  501  502  0.00000000000E+00  0.00000000000E+00  0.25287580837E+03  0.25287580837E+03  0.00000000000E+00 0. -1.
         21   -1    0    0  502  503 -0.00000000000E+00 -0.00000000000E+00 -0.15471768296E+03  0.15471768296E+03  0.00000000000E+00 0. -1.
          6    1    1    2  501    0  0.94996878245E+02  0.12922810164E+02  0.51127631780E+02  0.20429008941E+03  0.17300000000E+03 0.  1.
         -6    1    1    2    0  503 -0.94996878245E+02 -0.12922810164E+02  0.47030493632E+02  0.20330340191E+03  0.17300000000E+03 0.  1.
<mgrwt>
<rscale>  2 0.19778879E+03</rscale>
<asrwt>0</asrwt>
<pdfrwt beam="1">  1       21 0.38903970E-01 0.19778879E+03</pdfrwt>
<pdfrwt beam="2">  1       21 0.23802721E-01 0.19778879E+03</pdfrwt>
<totfact> 0.10573261E+05</totfact>
</mgrwt>
</event>
<event>
 4    1  0.4441180E+000  0.2925497E+03  0.7546771E-02  0.1089025E+00
         21   -1    0    0  501  502  0.00000000000E+00  0.00000000000E+00  0.17904069648E+03  0.17904069648E+03  0.00000000000E+00 0.  1.
         21   -1    0    0  502  503 -0.00000000000E+00 -0.00000000000E+00 -0.48275541404E+03  0.48275541404E+03  0.00000000000E+00 0. -1.
          6    1    1    2  501    0 -0.90020221850E+02 -0.21806580964E+03 -0.11909073040E+03  0.31586063342E+03  0.17300000000E+03 0.  1.
         -6    1    1    2    0  503  0.90020221850E+02  0.21806580964E+03 -0.18462398716E+03  0.34593547710E+03  0.17300000000E+03 0.  1.
<mgrwt>
<rscale>  2 0.29254972E+03</rscale>
<asrwt>0</asrwt>
<pdfrwt beam="1">  1       21 0.27544722E-01 0.29254972E+03</pdfrwt>
<pdfrwt beam="2">  1       21 0.74270064E-01 0.29254972E+03</pdfrwt>
<totfact> 0.19424718E+04</totfact>
</mgrwt>
</event>
<event>
 4    1  0.4441180E+000  0.1863333E+03  0.7546771E-02  0.1161811E+00
         21   -1    0    0  501  502  0.00000000000E+00  0.00000000000E+00  0.17007204383E+03  0.17007204383E+03  0.00000000000E+00 0.  1.
         21   -1    0    0  502  503 -0.00000000000E+00 -0.00000000000E+00 -0.20480899384E+03  0.20480899384E+03  0.00000000000E+00 0. -1.
          6    1    1    2  501    0  0.45317107853E+02  0.52320594474E+02 -0.67302888069E+01  0.18645477108E+03  0.17300000000E+03 0.  1.
         -6    1    1    2    0  503 -0.45317107853E+02 -0.52320594474E+02 -0.28006661198E+02  0.18842626659E+03  0.17300000000E+03 0. -1.
<mgrwt>
<rscale>  2 0.18633326E+03</rscale>
<asrwt>0</asrwt>
<pdfrwt beam="1">  1       21 0.26164930E-01 0.18633326E+03</pdfrwt>
<pdfrwt beam="2">  1       21 0.31509076E-01 0.18633326E+03</pdfrwt>
<totfact> 0.13468822E+05</totfact>
</mgrwt>
</event>
<event>
 4    1  0.4441180E+000  0.3665672E+03  0.7546771E-02  0.1056013E+00
         21   -1    0    0  503  502  0.00000000000E+00  0.00000000000E+00  0.35523288075E+03  0.35523288075E+03  0.00000000000E+00 0.  1.
         21   -1    0    0  501  503 -0.00000000000E+00 -0.00000000000E+00 -0.49285133835E+03  0.49285133835E+03  0.00000000000E+00 0. -1.
          6    1    1    2  501    0 -0.93460245597E+02  0.30936658001E+03 -0.27327517985E+03  0.45722075877E+03  0.17300000000E+03 0.  1.
         -6    1    1    2    0  502  0.93460245597E+02 -0.30936658001E+03  0.13565672225E+03  0.39086346033E+03  0.17300000000E+03 0. -1.
<mgrwt>
<rscale>  2 0.36656718E+03</rscale>
<asrwt>0</asrwt>
<pdfrwt beam="1">  1       21 0.54651212E-01 0.36656718E+03</pdfrwt>
<pdfrwt beam="2">  1       21 0.75823283E-01 0.36656718E+03</pdfrwt>
<totfact> 0.44393250E+03</totfact>
</mgrwt>
</event>
<event>
 4    1  0.4441180E+000  0.1810488E+03  0.7546771E-02  0.1166792E+00
         21   -1    0    0  501  502  0.00000000000E+00  0.00000000000E+00  0.80335928621E+03  0.80335928621E+03  0.00000000000E+00 0.  1.
         21   -1    0    0  502  503 -0.00000000000E+00 -0.00000000000E+00 -0.17038839549E+03  0.17038839549E+03  0.00000000000E+00 0.  1.
          6    1    1    2  501    0  0.53175676054E+02 -0.46937755990E+01  0.74108164323E+03  0.76287658634E+03  0.17300000000E+03 0.  1.
         -6    1    1    2    0  503 -0.53175676054E+02  0.46937755990E+01 -0.10811075250E+03  0.21087109536E+03  0.17300000000E+03 0.  1.
<mgrwt>
<rscale>  2 0.18104884E+03</rscale>
<asrwt>0</asrwt>
<pdfrwt beam="1">  1       21 0.12359373E+00 0.18104884E+03</pdfrwt>
<pdfrwt beam="2">  1       21 0.26213600E-01 0.18104884E+03</pdfrwt>
<totfact> 0.68499286E+03</totfact>
</mgrwt>
</event>
<event>
 4    1  0.4441180E+000  0.2064919E+03  0.7546771E-02  0.1144375E+00
         21   -1    0    0  503  502  0.00000000000E+00  0.00000000000E+00  0.22302223457E+03  0.22302223457E+03  0.00000000000E+00 0. -1.
         21   -1    0    0  501  503 -0.00000000000E+00 -0.00000000000E+00 -0.25224682242E+03  0.25224682242E+03  0.00000000000E+00 0.  1.
          6    1    1    2  501    0  0.55058259783E+02  0.98379309534E+02 -0.13152865263E+03  0.24482378761E+03  0.17300000000E+03 0.  1.
         -6    1    1    2    0  502 -0.55058259783E+02 -0.98379309534E+02  0.10230406477E+03  0.23044526939E+03  0.17300000000E+03 0. -1.
<mgrwt>
<rscale>  2 0.20649189E+03</rscale>
<asrwt>0</asrwt>
<pdfrwt beam="1">  1       21 0.34311113E-01 0.20649189E+03</pdfrwt>
<pdfrwt beam="2">  1       21 0.38807203E-01 0.20649189E+03</pdfrwt>
<totfact> 0.52062068E+04</totfact>
</mgrwt>
</event>
<event>
 4    1  0.4441180E+000  0.1865099E+03  0.7546771E-02  0.1161647E+00
         21   -1    0    0  503  502  0.00000000000E+00  0.00000000000E+00  0.51699565114E+03  0.51699565114E+03  0.00000000000E+00 0.  1.
         21   -1    0    0  501  503 -0.00000000000E+00 -0.00000000000E+00 -0.69090944338E+02  0.69090944338E+02  0.00000000000E+00 0.  1.
          6    1    1    2  501    0 -0.66687845920E+02 -0.20240766994E+02  0.27133240067E+03  0.32925253089E+03  0.17300000000E+03 0.  1.
         -6    1    1    2    0  502  0.66687845920E+02  0.20240766994E+02  0.17657230614E+03  0.25683406459E+03  0.17300000000E+03 0.  1.
<mgrwt>
<rscale>  2 0.18650994E+03</rscale>
<asrwt>0</asrwt>
<pdfrwt beam="1">  1       21 0.79537790E-01 0.18650994E+03</pdfrwt>
<pdfrwt beam="2">  1       21 0.10629376E-01 0.18650994E+03</pdfrwt>
<totfact> 0.10173655E+05</totfact>
</mgrwt>
</event>
<event>
 4    1  0.4441180E+000  0.1973727E+03  0.7546771E-02  0.1151975E+00
         21   -1    0    0  501  502  0.00000000000E+00  0.00000000000E+00  0.13030218039E+03  0.13030218039E+03  0.00000000000E+00 0. -1.
         21   -1    0    0  502  503 -0.00000000000E+00 -0.00000000000E+00 -0.71248205739E+03  0.71248205739E+03  0.00000000000E+00 0. -1.
          6    1    1    2  501    0 -0.85890563707E+02  0.40617822622E+02  0.29939848652E+02  0.19963063639E+03  0.17300000000E+03 0. -1.
         -6    1    1    2    0  503  0.85890563707E+02 -0.40617822622E+02 -0.61211972565E+03  0.64315360139E+03  0.17300000000E+03 0. -1.
<mgrwt>
<rscale>  2 0.19737273E+03</rscale>
<asrwt>0</asrwt>
<pdfrwt beam="1">  1       21 0.20046490E-01 0.19737273E+03</pdfrwt>
<pdfrwt beam="2">  1       21 0.10961262E+00 0.19737273E+03</pdfrwt>
<totfact> 0.15091785E+04</totfact>
</mgrwt>
</event>
<event>
 4    1  0.4441180E+000  0.1990170E+03  0.7546771E-02  0.1150571E+00
         21   -1    0    0  501  502  0.00000000000E+00  0.00000000000E+00  0.31319087446E+03  0.31319087446E+03  0.00000000000E+00 0. -1.
         21   -1    0    0  502  503 -0.00000000000E+00 -0.00000000000E+00 -0.65509867889E+03  0.65509867889E+03  0.00000000000E+00 0.  1.
          6    1    1    2  501    0  0.95955235299E+02 -0.21711256727E+02  0.26395587322E+03  0.33057599559E+03  0.17300000000E+03 0. -1.
         -6    1    1    2    0  503 -0.95955235299E+02  0.21711256727E+02 -0.60586367765E+03  0.63771355776E+03  0.17300000000E+03 0.  1.
<mgrwt>
<rscale>  2 0.19901705E+03</rscale>
<asrwt>0</asrwt>
<pdfrwt beam="1">  1       21 0.48183212E-01 0.19901705E+03</pdfrwt>
<pdfrwt beam="2">  1       21 0.10078441E+00 0.19901705E+03</pdfrwt>
<totfact> 0.32984734E+03</totfact>
</mgrwt>
</event>
<event>
 4    1  0.4441180E+000  0.2124375E+03  0.7546771E-02  0.1139650E+00
         21   -1    0    0  501  502  0.00000000000E+00  0.00000000000E+00  0.96670092579E+03  0.96670092579E+03  0.00000000000E+00 0.  1.
         21   -1    0    0  502  503 -0.00000000000E+00 -0.00000000000E+00 -0.49145016845E+02  0.49145016845E+02  0.00000000000E+00 0.  1.
          6    1    1    2  501    0  0.40259263711E+02 -0.11653266716E+03  0.57243509068E+03  0.61058300326E+03  0.17300000000E+03 0.  1.
         -6    1    1    2    0  503 -0.40259263711E+02  0.11653266716E+03  0.34512081827E+03  0.40526293938E+03  0.17300000000E+03 0.  1.
<mgrwt>
<rscale>  2 0.21243745E+03</rscale>
<asrwt>0</asrwt>
<pdfrwt beam="1">  1       21 0.14872321E+00 0.21243745E+03</pdfrwt>
<pdfrwt beam="2">  1       21 0.75607725E-02 0.21243745E+03</pdfrwt>
<totfact> 0.40002445E+04</totfact>
</mgrwt>
</event>
<event>
 4    1  0.4441180E+000  0.2346867E+03  0.7546771E-02  0.1123384E+00
         21   -1    0    0  503  502  0.00000000000E+00  0.00000000000E+00  0.33339789820E+03  0.33339789820E+03  0.00000000000E+00 0. -1.
         21   -1    0    0  501  503 -0.00000000000E+00 -0.00000000000E+00 -0.22318884330E+03  0.22318884330E+03  0.00000000000E+00 0. -1.
          6    1    1    2  501    0 -0.79834396292E+02 -0.13702310246E+03 -0.86746637103E+02  0.25020559644E+03  0.17300000000E+03 0. -1.
         -6    1    1    2    0  502  0.79834396292E+02  0.13702310246E+03  0.19695569200E+03  0.30638114506E+03  0.17300000000E+03 0. -1.
<mgrwt>
<rscale>  2 0.23468673E+03</rscale>
<asrwt>0</asrwt>
<pdfrwt beam="1">  1       21 0.51291984E-01 0.23468673E+03</pdfrwt>
<pdfrwt beam="2">  1       21 0.34336745E-01 0.23468673E+03</pdfrwt>
<totfact> 0.28887278E+04</totfact>
</mgrwt>
</event>
<event>
 4    1  0.4441180E+000  0.2347935E+03  0.7546771E-02  0.1123311E+00
         21   -1    0    0  503  502  0.00000000000E+00  0.00000000000E+00  0.51958759997E+03  0.51958759997E+03  0.00000000000E+00 0. -1.
         21   -1    0    0  501  503 -0.00000000000E+00 -0.00000000000E+00 -0.11973558521E+03  0.11973558521E+03  0.00000000000E+00 0.  1.
          6    1    1    2  501    0  0.15222808191E+03 -0.45006684590E+02  0.92050337114E+02  0.25219289273E+03  0.17300000000E+03 0.  1.
         -6    1    1    2    0  502 -0.15222808191E+03  0.45006684590E+02  0.30780167764E+03  0.38713029246E+03  0.17300000000E+03 0. -1.
<mgrwt>
<rscale>  2 0.23479351E+03</rscale>
<asrwt>0</asrwt>
<pdfrwt beam="1">  1       21 0.79936553E-01 0.23479351E+03</pdfrwt>
<pdfrwt beam="2">  1       21 0.18420860E-01 0.23479351E+03</pdfrwt>
<totfact> 0.36281862E+04</totfact>
</mgrwt>
</event>
<event>
 4    1  0.4441180E+000  0.2375852E+03  0.7546771E-02  0.1121412E+00
         21   -1    0    0  501  502  0.00000000000E+00  0.00000000000E+00  0.22933797240E+03  0.22933797240E+03  0.00000000000E+00 0.  1.
         21   -1    0    0  502  503 -0.00000000000E+00 -0.00000000000E+00 -0.24681574354E+03  0.24681574354E+03  0.00000000000E+00 0. -1.
          6    1    1    2  501    0  0.13919360081E+03  0.84515396162E+02 -0.21297706835E+02  0.23853784398E+03  0.17300000000E+03 0.  1.
         -6    1    1    2    0  503 -0.13919360081E+03 -0.84515396162E+02  0.38199356931E+01  0.23761587195E+03  0.17300000000E+03 0. -1.
<mgrwt>
<rscale>  2 0.23758517E+03</rscale>
<asrwt>0</asrwt>
<pdfrwt beam="1">  1       21 0.35282765E-01 0.23758517E+03</pdfrwt>
<pdfrwt beam="2">  1       21 0.37971653E-01 0.23758517E+03</pdfrwt>
<totfact> 0.50755175E+04</totfact>
</mgrwt>
</event>
<event>
 4    1  0.4441180E+000  0.2038553E+03  0.7546771E-02  0.1146526E+00
         21   -1    0    0  503  502  0.00000000000E+00  0.00000000000E+00  0.82507931938E+03  0.82507931938E+03  0.00000000000E+00 0. -1.
         21   -1    0    0  501  503 -0.00000000000E+00 -0.00000000000E+00 -0.66694221918E+02  0.66694221918E+02  0.00000000000E+00 0. -1.
          6    1    1    2  501    0 -0.17581720095E+02  0.10639020345E+03  0.15857855928E+03  0.25827146907E+03  0.17300000000E+03 0. -1.
         -6    1    1    2    0  502  0.17581720095E+02 -0.10639020345E+03  0.59980653819E+03  0.63350207223E+03  0.17300000000E+03 0. -1.
<mgrwt>
<rscale>  2 0.20385532E+03</rscale>
<asrwt>0</asrwt>
<pdfrwt beam="1">  1       21 0.12693527E+00 0.20385532E+03</pdfrwt>
<pdfrwt beam="2">  1       21 0.10260650E-01 0.20385532E+03</pdfrwt>
<totfact> 0.35359395E+04</totfact>
</mgrwt>
</event>
<event>
 4    1  0.4441180E+000  0.1961452E+03  0.7546771E-02  0.1153033E+00
         21   -1    0    0  501  502  0.00000000000E+00  0.00000000000E+00  0.12164445196E+03  0.12164445196E+03  0.00000000000E+00 0.  1.
         21   -1    0    0  502  503 -0.00000000000E+00 -0.00000000000E+00 -0.39402499706E+03  0.39402499706E+03  0.00000000000E+00 0.  1.
          6    1    1    2  501    0  0.57150486295E+02 -0.72648104217E+02 -0.21656463857E+02  0.19733709118E+03  0.17300000000E+03 0.  1.
         -6    1    1    2    0  503 -0.57150486295E+02  0.72648104217E+02 -0.25072408125E+03  0.31833235784E+03  0.17300000000E+03 0.  1.
<mgrwt>
<rscale>  2 0.19614516E+03</rscale>
<asrwt>0</asrwt>
<pdfrwt beam="1">  1       21 0.18714531E-01 0.19614516E+03</pdfrwt>
<pdfrwt beam="2">  1       21 0.60619232E-01 0.19614516E+03</pdfrwt>
<totfact> 0.66108157E+04</totfact>
</mgrwt>
</event>
<event>
 4    1  0.4441180E+000  0.1823761E+03  0.7546771E-02  0.1165523E+00
         21   -1    0    0  501  502  0.00000000000E+00  0.00000000000E+00  0.26383627064E+03  0.26383627064E+03  0.00000000000E+00 0. -1.
         21   -1    0    0  502  503 -0.00000000000E+00 -0.00000000000E+00 -0.20682126641E+03  0.20682126641E+03  0.00000000000E+00 0. -1.
          6    1    1    2  501    0 -0.33505294863E+02 -0.47004516730E+02  0.17555591609E+03  0.25314207286E+03  0.17300000000E+03 0. -1.
         -6    1    1    2    0  503  0.33505294863E+02  0.47004516730E+02 -0.11854091187E+03  0.21751546419E+03  0.17300000000E+03 0. -1.
<mgrwt>
<rscale>  2 0.18237607E+03</rscale>
<asrwt>0</asrwt>
<pdfrwt beam="1">  1       21 0.40590195E-01 0.18237607E+03</pdfrwt>
<pdfrwt beam="2">  1       21 0.31818656E-01 0.18237607E+03</pdfrwt>
<totfact> 0.55798461E+04</totfact>
</mgrwt>
</event>
<event>
 4    1  0.4441180E+000  0.2284688E+03  0.7546771E-02  0.1127722E+00
         21   -1    0    0  503  502  0.00000000000E+00  0.00000000000E+00  0.69676127038E+03  0.69676127038E+03  0.00000000000E+00 0.  1.
         21   -1    0    0  501  503 -0.00000000000E+00 -0.00000000000E+00 -0.15850315326E+03  0.15850315326E+03  0.00000000000E+00 0.  1.
          6    1    1    2  501    0  0.43284575395E+02  0.14281264159E+03 -0.41415069579E+02  0.23219218991E+03  0.17300000000E+03 0.  1.
         -6    1    1    2    0  502 -0.43284575395E+02 -0.14281264159E+03  0.57967318670E+03  0.62307223373E+03  0.17300000000E+03 0.  1.
<mgrwt>
<rscale>  2 0.22846883E+03</rscale>
<asrwt>0</asrwt>
<pdfrwt beam="1">  1       21 0.10719404E+00 0.22846883E+03</pdfrwt>
<pdfrwt beam="2">  1       21 0.24385101E-01 0.22846883E+03</pdfrwt>
<totfact> 0.10780707E+04</totfact>
</mgrwt>
</event>
<event>
 4    1  0.4441180E+000  0.1775003E+03  0.7546771E-02  0.1170244E+00
         21   -1    0    0  501  502  0.00000000000E+00  0.00000000000E+00  0.11482811933E+03  0.11482811933E+03  0.00000000000E+00 0.  1.
         21   -1    0    0  502  503 -0.00000000000E+00 -0.00000000000E+00 -0.29403341131E+03  0.29403341131E+03  0.00000000000E+00 0.  1.
          6    1    1    2  501    0  0.36285923261E+02  0.16145818581E+02 -0.14245746129E+03  0.22759719674E+03  0.17300000000E+03 0.  1.
         -6    1    1    2    0  503 -0.36285923261E+02 -0.16145818581E+02 -0.36747830682E+02  0.18126433390E+03  0.17300000000E+03 0.  1.
<mgrwt>
<rscale>  2 0.17750030E+03</rscale>
<asrwt>0</asrwt>
<pdfrwt beam="1">  1       21 0.17665865E-01 0.17750030E+03</pdfrwt>
<pdfrwt beam="2">  1       21 0.45235908E-01 0.17750030E+03</pdfrwt>
<totfact> 0.13695345E+05</totfact>
</mgrwt>
</event>
<event>
 4    1  0.4441180E+000  0.1867705E+03  0.7546771E-02  0.1161407E+00
         21   -1    0    0  503  502  0.00000000000E+00  0.00000000000E+00  0.32170654776E+02  0.32170654776E+02  0.00000000000E+00 0. -1.
         21   -1    0    0  501  503 -0.00000000000E+00 -0.00000000000E+00 -0.19181663298E+04  0.19181663298E+04  0.00000000000E+00 0.  1.
          6    1    1    2  501    0  0.11180526553E+02 -0.69492538987E+02 -0.15859521064E+04  0.15969118012E+04  0.17300000000E+03 0.  1.
         -6    1    1    2    0  502 -0.11180526553E+02  0.69492538987E+02 -0.30004356868E+03  0.35342518339E+03  0.17300000000E+03 0. -1.
<mgrwt>
<rscale>  2 0.18677049E+03</rscale>
<asrwt>0</asrwt>
<pdfrwt beam="1">  1       21 0.49493307E-02 0.18677049E+03</pdfrwt>
<pdfrwt beam="2">  1       21 0.29510256E+00 0.18677049E+03</pdfrwt>
<totfact> 0.10032060E+04</totfact>
</mgrwt>
</event>
<event>
 4    1  0.4441180E+000  0.1772361E+03  0.7546771E-02  0.1170505E+00
         21   -1    0    0  501  502  0.00000000000E+00  0.00000000000E+00  0.61060076001E+02  0.61060076001E+02  0.00000000000E+00 0.  1.
         21   -1    0    0  502  503 -0.00000000000E+00 -0.00000000000E+00 -0.77206714293E+03  0.77206714293E+03  0.00000000000E+00 0.  1.
          6    1    1    2  501    0 -0.23621648834E+02 -0.30424493133E+02 -0.11488040859E+03  0.21121112744E+03  0.17300000000E+03 0.  1.
         -6    1    1    2    0  503  0.23621648834E+02  0.30424493133E+02 -0.59612665834E+03  0.62191609149E+03  0.17300000000E+03 0.  1.
<mgrwt>
<rscale>  2 0.17723609E+03</rscale>
<asrwt>0</asrwt>
<pdfrwt beam="1">  1       21 0.93938582E-02 0.17723609E+03</pdfrwt>
<pdfrwt beam="2">  1       21 0.11877956E+00 0.17723609E+03</pdfrwt>
<totfact> 0.49471036E+04</totfact>
</mgrwt>
</event>
<event>
 4    1  0.4441180E+000  0.2964358E+03  0.7546771E-02  0.1087036E+00
         21   -1    0    0  501  502  0.00000000000E+00  0.00000000000E+00  0.13814978920E+03  0.13814978920E+03  0.00000000000E+00 0.  1.
         21   -1    0    0  502  503 -0.00000000000E+00 -0.00000000000E+00 -0.14256597160E+04  0.14256597160E+04  0.00000000000E+00 0. -1.
          6    1    1    2  501    0 -0.34686452589E+02  0.23820584646E+03 -0.61860547959E+02  0.30282156903E+03  0.17300000000E+03 0.  1.
         -6    1    1    2    0  503  0.34686452589E+02 -0.23820584646E+03 -0.12256493789E+04  0.12609879362E+04  0.17300000000E+03 0. -1.
<mgrwt>
<rscale>  2 0.29643579E+03</rscale>
<asrwt>0</asrwt>
<pdfrwt beam="1">  1       21 0.21253812E-01 0.29643579E+03</pdfrwt>
<pdfrwt beam="2">  1       21 0.21933229E+00 0.29643579E+03</pdfrwt>
<totfact> 0.19103945E+03</totfact>
</mgrwt>
</event>
<event>
 4    1  0.4441180E+000  0.1945929E+03  0.7546771E-02  0.1154383E+00
         21   -1    0    0  501  502  0.00000000000E+00  0.00000000000E+00  0.18727671248E+03  0.18727671248E+03  0.00000000000E+00 0.  1.
         21   -1    0    0  502  503 -0.00000000000E+00 -0.00000000000E+00 -0.23334474043E+03  0.23334474043E+03  0.00000000000E+00 0.  1.
          6    1    1    2  501    0 -0.81870776638E+02  0.35136632714E+02  0.53806440306E+02  0.20189487374E+03  0.17300000000E+03 0.  1.
         -6    1    1    2    0  503  0.81870776638E+02 -0.35136632714E+02 -0.99874468252E+02  0.21872657917E+03  0.17300000000E+03 0.  1.
<mgrwt>
<rscale>  2 0.19459293E+03</rscale>
<asrwt>0</asrwt>
<pdfrwt beam="1">  1       21 0.28811802E-01 0.19459293E+03</pdfrwt>
<pdfrwt beam="2">  1       21 0.35899191E-01 0.19459293E+03</pdfrwt>
<totfact> 0.86186739E+04</totfact>
</mgrwt>
</event>
<event>
 4    1  0.4441180E+000  0.1994035E+03  0.7546771E-02  0.1150243E+00
         21   -1    0    0  501  502  0.00000000000E+00  0.00000000000E+00  0.41862472804E+03  0.41862472804E+03  0.00000000000E+00 0.  1.
         21   -1    0    0  502  503 -0.00000000000E+00 -0.00000000000E+00 -0.12384815811E+03  0.12384815811E+03  0.00000000000E+00 0.  1.
          6    1    1    2  501    0 -0.80227791287E+02 -0.58277344306E+02  0.27833631027E+03  0.34239282844E+03  0.17300000000E+03 0.  1.
         -6    1    1    2    0  503  0.80227791287E+02  0.58277344306E+02  0.16440259663E+02  0.20008005771E+03  0.17300000000E+03 0.  1.
<mgrwt>
<rscale>  2 0.19940348E+03</rscale>
<asrwt>0</asrwt>
<pdfrwt beam="1">  1       21 0.64403804E-01 0.19940348E+03</pdfrwt>
<pdfrwt beam="2">  1       21 0.19053563E-01 0.19940348E+03</pdfrwt>
<totfact> 0.55999662E+04</totfact>
</mgrwt>
</event>
<event>
 4    1  0.4441180E+000  0.2133999E+03  0.7546771E-02  0.1138902E+00
         21   -1    0    0  501  502  0.00000000000E+00  0.00000000000E+00  0.15156296303E+04  0.15156296303E+04  0.00000000000E+00 0. -1.
         21   -1    0    0  502  503 -0.00000000000E+00 -0.00000000000E+00 -0.21421891392E+03  0.21421891392E+03  0.00000000000E+00 0.  1.
          6    1    1    2  501    0 -0.12047449577E+02 -0.12435980894E+03  0.14526813392E+04  0.14682719695E+04  0.17300000000E+03 0. -1.
         -6    1    1    2    0  503  0.12047449577E+02  0.12435980894E+03 -0.15127062282E+03  0.26157657474E+03  0.17300000000E+03 0.  1.
<mgrwt>
<rscale>  2 0.21339987E+03</rscale>
<asrwt>0</asrwt>
<pdfrwt beam="1">  1       21 0.23317378E+00 0.21339987E+03</pdfrwt>
<pdfrwt beam="2">  1       21 0.32956757E-01 0.21339987E+03</pdfrwt>
<totfact> 0.72370098E+02</totfact>
</mgrwt>
</event>
<event>
 4    1  0.4441180E+000  0.2361302E+03  0.7546771E-02  0.1122398E+00
         21   -1    0    0  503  502  0.00000000000E+00  0.00000000000E+00  0.59281663560E+03  0.59281663560E+03  0.00000000000E+00 0. -1.
         21   -1    0    0  501  503 -0.00000000000E+00 -0.00000000000E+00 -0.13187041839E+03  0.13187041839E+03  0.00000000000E+00 0.  1.
          6    1    1    2  501    0  0.10006396232E+03  0.12576047859E+03  0.36438119312E+02  0.23892515788E+03  0.17300000000E+03 0.  1.
         -6    1    1    2    0  502 -0.10006396232E+03 -0.12576047859E+03  0.42450809789E+03  0.48576189610E+03  0.17300000000E+03 0. -1.
<mgrwt>
<rscale>  2 0.23613025E+03</rscale>
<asrwt>0</asrwt>
<pdfrwt beam="1">  1       21 0.91202558E-01 0.23613025E+03</pdfrwt>
<pdfrwt beam="2">  1       21 0.20287757E-01 0.23613025E+03</pdfrwt>
<totfact> 0.22341788E+04</totfact>
</mgrwt>
</event>
<event>
 4    1  0.4441180E+000  0.1783016E+03  0.7546771E-02  0.1169457E+00
         21   -1    0    0  503  502  0.00000000000E+00  0.00000000000E+00  0.24910306847E+04  0.24910306847E+04  0.00000000000E+00 0. -1.
         21   -1    0    0  501  503 -0.00000000000E+00 -0.00000000000E+00 -0.13996890403E+02  0.13996890403E+02  0.00000000000E+00 0. -1.
          6    1    1    2  501    0 -0.39894347681E+02 -0.16459053321E+02  0.86654033333E+03  0.88469407634E+03  0.17300000000E+03 0. -1.
         -6    1    1    2    0  502  0.39894347681E+02  0.16459053321E+02  0.16104934609E+04  0.16203334987E+04  0.17300000000E+03 0. -1.
<mgrwt>
<rscale>  2 0.17830160E+03</rscale>
<asrwt>0</asrwt>
<pdfrwt beam="1">  1       21 0.38323514E+00 0.17830160E+03</pdfrwt>
<pdfrwt beam="2">  1       21 0.21533697E-02 0.17830160E+03</pdfrwt>
<totfact> 0.12284559E+04</totfact>
</mgrwt>
</event>
<event>
 4    1  0.4441180E+000  0.2297803E+03  0.7546771E-02  0.1126794E+00
         21   -1    0    0  501  502  0.00000000000E+00  0.00000000000E+00  0.48790990617E+03  0.48790990617E+03  0.00000000000E+00 0.  1.
         21   -1    0    0  502  503 -0.00000000000E+00 -0.00000000000E+00 -0.11820474634E+03  0.11820474634E+03  0.00000000000E+00 0.  1.
          6    1    1    2  501    0  0.63275954220E+02  0.13735412260E+03  0.27295586341E+03  0.35679672749E+03  0.17300000000E+03 0.  1.
         -6    1    1    2    0  503 -0.63275954220E+02 -0.13735412260E+03  0.96749296416E+02  0.24931792502E+03  0.17300000000E+03 0.  1.
<mgrwt>
<rscale>  2 0.22978033E+03</rscale>
<asrwt>0</asrwt>
<pdfrwt beam="1">  1       21 0.75063061E-01 0.22978033E+03</pdfrwt>
<pdfrwt beam="2">  1       21 0.18185346E-01 0.22978033E+03</pdfrwt>
<totfact> 0.42929628E+04</totfact>
</mgrwt>
</event>
<event>
 4    1  0.4441180E+000  0.1788343E+03  0.7546771E-02  0.1168936E+00
         21   -1    0    0  503  502  0.00000000000E+00  0.00000000000E+00  0.94286389028E+02  0.94286389028E+02  0.00000000000E+00 0.  1.
         21   -1    0    0  501  503 -0.00000000000E+00 -0.00000000000E+00 -0.81413331691E+03  0.81413331691E+03  0.00000000000E+00 0.  1.
          6    1    1    2  501    0  0.36841442560E+02 -0.26370477987E+02 -0.70684104826E+03  0.72911313354E+03  0.17300000000E+03 0.  1.
         -6    1    1    2    0  502 -0.36841442560E+02  0.26370477987E+02 -0.13005879622E+02  0.17930657239E+03  0.17300000000E+03 0.  1.
<mgrwt>
<rscale>  2 0.17883426E+03</rscale>
<asrwt>0</asrwt>
<pdfrwt beam="1">  1       21 0.14505599E-01 0.17883426E+03</pdfrwt>
<pdfrwt beam="2">  1       21 0.12525128E+00 0.17883426E+03</pdfrwt>
<totfact> 0.19966519E+04</totfact>
</mgrwt>
</event>
<event>
 4    1  0.4441180E+000  0.2547729E+03  0.7546771E-02  0.1110325E+00
         21   -1    0    0  503  502  0.00000000000E+00  0.00000000000E+00  0.45036618094E+03  0.45036618094E+03  0.00000000000E+00 0. -1.
         21   -1    0    0  501  503 -0.00000000000E+00 -0.00000000000E+00 -0.14444814948E+03  0.14444814948E+03  0.00000000000E+00 0.  1.
          6    1    1    2  501    0 -0.14784512239E+03 -0.11455150343E+03  0.13890188882E+03  0.29017746617E+03  0.17300000000E+03 0.  1.
         -6    1    1    2    0  502  0.14784512239E+03  0.11455150343E+03  0.16701614264E+03  0.30463686424E+03  0.17300000000E+03 0. -1.
<mgrwt>
<rscale>  2 0.25477289E+03</rscale>
<asrwt>0</asrwt>
<pdfrwt beam="1">  1       21 0.69287104E-01 0.25477289E+03</pdfrwt>
<pdfrwt beam="2">  1       21 0.22222792E-01 0.25477289E+03</pdfrwt>
<totfact> 0.34830667E+04</totfact>
</mgrwt>
</event>
<event>
 4    1  0.4441180E+000  0.2312351E+03  0.7546771E-02  0.1125773E+00
         21   -1    0    0  503  502  0.00000000000E+00  0.00000000000E+00  0.56173441236E+03  0.56173441236E+03  0.00000000000E+00 0.  1.
         21   -1    0    0  501  503 -0.00000000000E+00 -0.00000000000E+00 -0.99923673342E+02  0.99923673342E+02  0.00000000000E+00 0. -1.
          6    1    1    2  501    0 -0.10732348906E+03  0.10964638262E+03  0.15887450366E+03  0.28055439480E+03  0.17300000000E+03 0. -1.
         -6    1    1    2    0  502  0.10732348906E+03 -0.10964638262E+03  0.30293623536E+03  0.38110369090E+03  0.17300000000E+03 0. -1.
<mgrwt>
<rscale>  2 0.23123508E+03</rscale>
<asrwt>0</asrwt>
<pdfrwt beam="1">  1       21 0.86420677E-01 0.23123508E+03</pdfrwt>
<pdfrwt beam="2">  1       21 0.15372873E-01 0.23123508E+03</pdfrwt>
<totfact> 0.42452574E+04</totfact>
</mgrwt>
</event>
<event>
 4    1  0.4441180E+000  0.3391242E+03  0.7546771E-02  0.1067170E+00
         21   -1    0    0  503  502  0.00000000000E+00  0.00000000000E+00  0.26445161857E+03  0.26445161857E+03  0.00000000000E+00 0.  1.
         21   -1    0    0  501  503 -0.00000000000E+00 -0.00000000000E+00 -0.77152761456E+03  0.77152761456E+03  0.00000000000E+00 0. -1.
          6    1    1    2  501    0  0.28989990419E+03 -0.32160376442E+02 -0.59570002364E+03  0.68546609138E+03  0.17300000000E+03 0. -1.
         -6    1    1    2    0  502 -0.28989990419E+03  0.32160376442E+02  0.88624027643E+02  0.35051314175E+03  0.17300000000E+03 0.  1.
<mgrwt>
<rscale>  2 0.33912423E+03</rscale>
<asrwt>0</asrwt>
<pdfrwt beam="1">  1       21 0.40684864E-01 0.33912423E+03</pdfrwt>
<pdfrwt beam="2">  1       21 0.11869656E+00 0.33912423E+03</pdfrwt>
<totfact> 0.28668634E+03</totfact>
</mgrwt>
</event>
<event>
 4    1  0.4441180E+000  0.2281763E+03  0.7546771E-02  0.1127930E+00
         21   -1    0    0  501  502  0.00000000000E+00  0.00000000000E+00  0.18333690148E+03  0.18333690148E+03  0.00000000000E+00 0. -1.
         21   -1    0    0  502  503 -0.00000000000E+00 -0.00000000000E+00 -0.49544564809E+03  0.49544564809E+03  0.00000000000E+00 0.  1.
          6    1    1    2  501    0 -0.89298756517E+02 -0.11900067806E+03  0.65673477727E+02  0.23743932903E+03  0.17300000000E+03 0. -1.
         -6    1    1    2    0  503  0.89298756517E+02  0.11900067806E+03 -0.37778222433E+03  0.44134322054E+03  0.17300000000E+03 0.  1.
<mgrwt>
<rscale>  2 0.22817631E+03</rscale>
<asrwt>0</asrwt>
<pdfrwt beam="1">  1       21 0.28205678E-01 0.22817631E+03</pdfrwt>
<pdfrwt beam="2">  1       21 0.76222406E-01 0.22817631E+03</pdfrwt>
<totfact> 0.18037950E+04</totfact>
</mgrwt>
</event>
<event>
 4    1  0.4441180E+000  0.2227340E+03  0.7546771E-02  0.1131861E+00
         21   -1    0    0  501  502  0.00000000000E+00  0.00000000000E+00  0.53080033821E+03  0.53080033821E+03  0.00000000000E+00 0.  1.
         21   -1    0    0  502  503 -0.00000000000E+00 -0.00000000000E+00 -0.17523371320E+03  0.17523371320E+03  0.00000000000E+00 0.  1.
          6    1    1    2  501    0  0.89236008148E+02 -0.10825145990E+03  0.41893175051E+03  0.47446206941E+03  0.17300000000E+03 0.  1.
         -6    1    1    2    0  503 -0.89236008148E+02  0.10825145990E+03 -0.63365125501E+02  0.23157198200E+03  0.17300000000E+03 0.  1.
<mgrwt>
<rscale>  2 0.22273402E+03</rscale>
<asrwt>0</asrwt>
<pdfrwt beam="1">  1       21 0.81661590E-01 0.22273402E+03</pdfrwt>
<pdfrwt beam="2">  1       21 0.26959033E-01 0.22273402E+03</pdfrwt>
<totfact> 0.16895984E+04</totfact>
</mgrwt>
</event>
<event>
 4    1  0.4441180E+000  0.1820695E+03  0.7546771E-02  0.1165815E+00
         21   -1    0    0  501  502  0.00000000000E+00  0.00000000000E+00  0.32384353391E+03  0.32384353391E+03  0.00000000000E+00 0.  1.
         21   -1    0    0  502  503 -0.00000000000E+00 -0.00000000000E+00 -0.38544638430E+03  0.38544638430E+03  0.00000000000E+00 0.  1.
          6    1    1    2  501    0 -0.16427265616E+02 -0.54318027305E+02  0.27312585631E+03  0.32824843721E+03  0.17300000000E+03 0.  1.
         -6    1    1    2    0  503  0.16427265616E+02  0.54318027305E+02 -0.33472870671E+03  0.38104148100E+03  0.17300000000E+03 0.  1.
<mgrwt>
<rscale>  2 0.18206950E+03</rscale>
<asrwt>0</asrwt>
<pdfrwt beam="1">  1       21 0.49822082E-01 0.18206950E+03</pdfrwt>
<pdfrwt beam="2">  1       21 0.59299444E-01 0.18206950E+03</pdfrwt>
<totfact> 0.10275443E+04</totfact>
</mgrwt>
</event>
<event>
 4    1  0.4441180E+000  0.1808857E+03  0.7546771E-02  0.1166949E+00
         21   -1    0    0  503  502  0.00000000000E+00  0.00000000000E+00  0.28393776404E+03  0.28393776404E+03  0.00000000000E+00 0. -1.
         21   -1    0    0  501  503 -0.00000000000E+00 -0.00000000000E+00 -0.11825980622E+03  0.11825980622E+03  0.00000000000E+00 0. -1.
          6    1    1    2  501    0 -0.46582727671E+02 -0.24913802365E+02  0.11499923219E+03  0.21434661525E+03  0.17300000000E+03 0. -1.
         -6    1    1    2    0  502  0.46582727671E+02  0.24913802365E+02  0.50678725628E+02  0.18785095501E+03  0.17300000000E+03 0. -1.
<mgrwt>
<rscale>  2 0.18088573E+03</rscale>
<asrwt>0</asrwt>
<pdfrwt beam="1">  1       21 0.43682733E-01 0.18088573E+03</pdfrwt>
<pdfrwt beam="2">  1       21 0.18193816E-01 0.18088573E+03</pdfrwt>
<totfact> 0.13916315E+05</totfact>
</mgrwt>
</event>
<event>
 4    1  0.4441180E+000  0.2322993E+03  0.7546771E-02  0.1125032E+00
         21   -1    0    0  503  502  0.00000000000E+00  0.00000000000E+00  0.30722363241E+04  0.30722363241E+04  0.00000000000E+00 0.  1.
         21   -1    0    0  501  503 -0.00000000000E+00 -0.00000000000E+00 -0.38166324172E+02  0.38166324172E+02  0.00000000000E+00 0. -1.
          6    1    1    2  501    0 -0.14463484827E+03  0.55809919909E+02  0.37442790761E+03  0.44063504683E+03  0.17300000000E+03 0. -1.
         -6    1    1    2    0  502  0.14463484827E+03 -0.55809919909E+02  0.26596420923E+04  0.26697676015E+04  0.17300000000E+03 0.  1.
<mgrwt>
<rscale>  2 0.23229935E+03</rscale>
<asrwt>0</asrwt>
<pdfrwt beam="1">  1       21 0.47265155E+00 0.23229935E+03</pdfrwt>
<pdfrwt beam="2">  1       21 0.58717446E-02 0.23229935E+03</pdfrwt>
<totfact> 0.56420774E+02</totfact>
</mgrwt>
</event>
<event>
 4    1  0.4441180E+000  0.2832636E+03  0.7546771E-02  0.1093920E+00
         21   -1    0    0  501  502  0.00000000000E+00  0.00000000000E+00  0.15163559463E+03  0.15163559463E+03  0.00000000000E+00 0. -1.
         21   -1    0    0  502  503 -0.00000000000E+00 -0.00000000000E+00 -0.54601304243E+03  0.54601304243E+03  0.00000000000E+00 0. -1.
          6    1    1    2  501    0 -0.19431631585E+03  0.11202880643E+03 -0.13589063210E+03  0.31417279954E+03  0.17300000000E+03 0. -1.
         -6    1    1    2    0  503  0.19431631585E+03 -0.11202880643E+03 -0.25848681569E+03  0.38347583752E+03  0.17300000000E+03 0. -1.
<mgrwt>
<rscale>  2 0.28326363E+03</rscale>
<asrwt>0</asrwt>
<pdfrwt beam="1">  1       21 0.23328553E-01 0.28326363E+03</pdfrwt>
<pdfrwt beam="2">  1       21 0.84002007E-01 0.28326363E+03</pdfrwt>
<totfact> 0.20296703E+04</totfact>
</mgrwt>
</event>
<event>
 4    1  0.4441180E+000  0.2232848E+03  0.7546771E-02  0.1131458E+00
         21   -1    0    0  501  502  0.00000000000E+00  0.00000000000E+00  0.53793132588E+03  0.53793132588E+03  0.00000000000E+00 0.  1.
         21   -1    0    0  502  503 -0.00000000000E+00 -0.00000000000E+00 -0.28761007801E+03  0.28761007801E+03  0.00000000000E+00 0.  1.
          6    1    1    2  501    0 -0.10929598586E+03  0.89339061893E+02  0.46497753588E+03  0.51581022612E+03  0.17300000000E+03 0.  1.
         -6    1    1    2    0  503  0.10929598586E+03 -0.89339061893E+02 -0.21465628800E+03  0.30973117777E+03  0.17300000000E+03 0.  1.
<mgrwt>
<rscale>  2 0.22328475E+03</rscale>
<asrwt>0</asrwt>
<pdfrwt beam="1">  1       21 0.82758665E-01 0.22328475E+03</pdfrwt>
<pdfrwt beam="2">  1       21 0.44247704E-01 0.22328475E+03</pdfrwt>
<totfact> 0.61099928E+03</totfact>
</mgrwt>
</event>
<event>
 4    1  0.4441180E+000  0.1868512E+03  0.7546771E-02  0.1161332E+00
         21   -1    0    0  501  502  0.00000000000E+00  0.00000000000E+00  0.22939235518E+03  0.22939235518E+03  0.00000000000E+00 0. -1.
         21   -1    0    0  502  503 -0.00000000000E+00 -0.00000000000E+00 -0.33929994625E+03  0.33929994625E+03  0.00000000000E+00 0. -1.
          6    1    1    2  501    0 -0.31987262503E+02 -0.62937896951E+02  0.15619716509E+03  0.24353833008E+03  0.17300000000E+03 0. -1.
         -6    1    1    2    0  503  0.31987262503E+02  0.62937896951E+02 -0.26610475616E+03  0.32515397135E+03  0.17300000000E+03 0. -1.
<mgrwt>
<rscale>  2 0.18685118E+03</rscale>
<asrwt>0</asrwt>
<pdfrwt beam="1">  1       21 0.35291132E-01 0.18685118E+03</pdfrwt>
<pdfrwt beam="2">  1       21 0.52199992E-01 0.18685118E+03</pdfrwt>
<totfact> 0.27042069E+04</totfact>
</mgrwt>
</event>
<event>
 4    1  0.4441180E+000  0.2135692E+03  0.7546771E-02  0.1138770E+00
         21   -1    0    0  501  502  0.00000000000E+00  0.00000000000E+00  0.20878860080E+02  0.20878860080E+02  0.00000000000E+00 0. -1.
         21   -1    0    0  502  503 -0.00000000000E+00 -0.00000000000E+00 -0.21875237544E+04  0.21875237544E+04  0.00000000000E+00 0. -1.
          6    1    1    2  501    0 -0.90750810333E+02  0.86296595324E+02 -0.10429057991E+04  0.10645488799E+04  0.17300000000E+03 0. -1.
         -6    1    1    2    0  503  0.90750810333E+02 -0.86296595324E+02 -0.11237390952E+04  0.11438537345E+04  0.17300000000E+03 0. -1.
<mgrwt>
<rscale>  2 0.21356922E+03</rscale>
<asrwt>0</asrwt>
<pdfrwt beam="1">  1       21 0.32121321E-02 0.21356922E+03</pdfrwt>
<pdfrwt beam="2">  1       21 0.33654214E+00 0.21356922E+03</pdfrwt>
<totfact> 0.11582584E+04</totfact>
</mgrwt>
</event>
<event>
 4    1  0.4441180E+000  0.2417227E+03  0.7546771E-02  0.1118651E+00
         21   -1    0    0  501  502  0.00000000000E+00  0.00000000000E+00  0.25045420665E+03  0.25045420665E+03  0.00000000000E+00 0.  1.
         21   -1    0    0  502  503 -0.00000000000E+00 -0.00000000000E+00 -0.10339230229E+04  0.10339230229E+04  0.00000000000E+00 0. -1.
          6    1    1    2  501    0 -0.88566071916E+02  0.14372507246E+03  0.17337657735E+03  0.29747148287E+03  0.17300000000E+03 0.  1.
         -6    1    1    2    0  503  0.88566071916E+02 -0.14372507246E+03 -0.95684539358E+03  0.98690574664E+03  0.17300000000E+03 0. -1.
<mgrwt>
<rscale>  2 0.24172266E+03</rscale>
<asrwt>0</asrwt>
<pdfrwt beam="1">  1       21 0.38531417E-01 0.24172266E+03</pdfrwt>
<pdfrwt beam="2">  1       21 0.15906508E+00 0.24172266E+03</pdfrwt>
<totfact> 0.15882529E+03</totfact>
</mgrwt>
</event>
<event>
 4    1  0.4441180E+000  0.1864725E+03  0.7546771E-02  0.1161682E+00
         21   -1    0    0  501  502  0.00000000000E+00  0.00000000000E+00  0.70069727799E+02  0.70069727799E+02  0.00000000000E+00 0.  1.
         21   -1    0    0  502  503 -0.00000000000E+00 -0.00000000000E+00 -0.49625196388E+03  0.49625196388E+03  0.00000000000E+00 0.  1.
          6    1    1    2  501    0 -0.59732237495E+02  0.35707988643E+02 -0.21383406995E+03  0.28371995016E+03  0.17300000000E+03 0.  1.
         -6    1    1    2    0  503  0.59732237495E+02 -0.35707988643E+02 -0.21234816614E+03  0.28260174152E+03  0.17300000000E+03 0.  1.
<mgrwt>
<rscale>  2 0.18647252E+03</rscale>
<asrwt>0</asrwt>
<pdfrwt beam="1">  1       21 0.10779959E-01 0.18647252E+03</pdfrwt>
<pdfrwt beam="2">  1       21 0.76346452E-01 0.18647252E+03</pdfrwt>
<totfact> 0.10879459E+05</totfact>
</mgrwt>
</event>
<event>
 4    1  0.4441180E+000  0.2133676E+03  0.7546771E-02  0.1138927E+00
         21   -1    0    0  501  502  0.00000000000E+00  0.00000000000E+00  0.12687076697E+04  0.12687076697E+04  0.00000000000E+00 0.  1.
         21   -1    0    0  502  503 -0.00000000000E+00 -0.00000000000E+00 -0.10607779668E+03  0.10607779668E+03  0.00000000000E+00 0. -1.
          6    1    1    2  501    0  0.34377489976E+02 -0.12006210340E+03  0.11404844508E+04  0.11602717367E+04  0.17300000000E+03 0.  1.
         -6    1    1    2    0  503 -0.34377489976E+02  0.12006210340E+03  0.22145422219E+02  0.21451372967E+03  0.17300000000E+03 0. -1.
<mgrwt>
<rscale>  2 0.21336757E+03</rscale>
<asrwt>0</asrwt>
<pdfrwt beam="1">  1       21 0.19518578E+00 0.21336757E+03</pdfrwt>
<pdfrwt beam="2">  1       21 0.16319662E-01 0.21336757E+03</pdfrwt>
<totfact> 0.47611529E+03</totfact>
</mgrwt>
</event>
<event>
 4    1  0.4441180E+000  0.1944696E+03  0.7546771E-02  0.1154491E+00
         21   -1    0    0  501  502  0.00000000000E+00  0.00000000000E+00  0.15465854841E+03  0.15465854841E+03  0.00000000000E+00 0. -1.
         21   -1    0    0  502  503 -0.00000000000E+00 -0.00000000000E+00 -0.28818294707E+03  0.28818294707E+03  0.00000000000E+00 0. -1.
          6    1    1    2  501    0  0.22681139836E+02 -0.85877663471E+02  0.19416299291E+02  0.19543643434E+03  0.17300000000E+03 0.  1.
         -6    1    1    2    0  503 -0.22681139836E+02  0.85877663471E+02 -0.15294069795E+03  0.24740506114E+03  0.17300000000E+03 0.  1.
<mgrwt>
<rscale>  2 0.19446955E+03</rscale>
<asrwt>0</asrwt>
<pdfrwt beam="1">  1       21 0.23793623E-01 0.19446955E+03</pdfrwt>
<pdfrwt beam="2">  1       21 0.44335838E-01 0.19446955E+03</pdfrwt>
<totfact> 0.81247817E+04</totfact>
</mgrwt>
</event>
<event>
 4    1  0.4441180E+000  0.2000965E+03  0.7546771E-02  0.1149658E+00
         21   -1    0    0  501  502  0.00000000000E+00  0.00000000000E+00  0.12810151944E+03  0.12810151944E+03  0.00000000000E+00 0. -1.
         21   -1    0    0  502  503 -0.00000000000E+00 -0.00000000000E+00 -0.72344441319E+03  0.72344441319E+03  0.00000000000E+00 0. -1.
          6    1    1    2  501    0 -0.86349549630E+02 -0.51511005433E+02  0.23205532934E+02  0.20143764584E+03  0.17300000000E+03 0. -1.
         -6    1    1    2    0  503  0.86349549630E+02  0.51511005433E+02 -0.61854842669E+03  0.65010828679E+03  0.17300000000E+03 0. -1.
<mgrwt>
<rscale>  2 0.20009655E+03</rscale>
<asrwt>0</asrwt>
<pdfrwt beam="1">  1       21 0.19707926E-01 0.20009655E+03</pdfrwt>
<pdfrwt beam="2">  1       21 0.11129914E+00 0.20009655E+03</pdfrwt>
<totfact> 0.14986306E+04</totfact>
</mgrwt>
</event>
<event>
 4    1  0.4441180E+000  0.1787860E+03  0.7546771E-02  0.1168983E+00
         21   -1    0    0  503  502  0.00000000000E+00  0.00000000000E+00  0.18336694184E+04  0.18336694184E+04  0.00000000000E+00 0. -1.
         21   -1    0    0  501  503 -0.00000000000E+00 -0.00000000000E+00 -0.18439324347E+02  0.18439324347E+02  0.00000000000E+00 0. -1.
          6    1    1    2  501    0 -0.17836068369E+02  0.41440226127E+02  0.69116319701E+03  0.71391244742E+03  0.17300000000E+03 0. -1.
         -6    1    1    2    0  502  0.17836068369E+02 -0.41440226127E+02  0.11240668971E+04  0.11381962954E+04  0.17300000000E+03 0. -1.
<mgrwt>
<rscale>  2 0.17878595E+03</rscale>
<asrwt>0</asrwt>
<pdfrwt beam="1">  1       21 0.28210284E+00 0.17878595E+03</pdfrwt>
<pdfrwt beam="2">  1       21 0.28368206E-02 0.17878595E+03</pdfrwt>
<totfact> 0.30426666E+04</totfact>
</mgrwt>
</event>
<event>
 4    1  0.4441180E+000  0.2292902E+03  0.7546771E-02  0.1127140E+00
         21   -1    0    0  501  502  0.00000000000E+00  0.00000000000E+00  0.69739910292E+03  0.69739910292E+03  0.00000000000E+00 0.  1.
         21   -1    0    0  502  503 -0.00000000000E+00 -0.00000000000E+00 -0.16031823548E+03  0.16031823548E+03  0.00000000000E+00 0.  1.
          6    1    1    2  501    0 -0.84028093207E+02 -0.12483707679E+03  0.58068761805E+03  0.62431732792E+03  0.17300000000E+03 0.  1.
         -6    1    1    2    0  503  0.84028093207E+02  0.12483707679E+03 -0.43606750607E+02  0.23340001047E+03  0.17300000000E+03 0.  1.
<mgrwt>
<rscale>  2 0.22929024E+03</rscale>
<asrwt>0</asrwt>
<pdfrwt beam="1">  1       21 0.10729217E+00 0.22929024E+03</pdfrwt>
<pdfrwt beam="2">  1       21 0.24664344E-01 0.22929024E+03</pdfrwt>
<totfact> 0.10519672E+04</totfact>
</mgrwt>
</event>
<event>
 4    1  0.4441180E+000  0.2445707E+03  0.7546771E-02  0.1116785E+00
         21   -1    0    0  503  502  0.00000000000E+00  0.00000000000E+00  0.40190686662E+03  0.40190686662E+03  0.00000000000E+00 0. -1.
         21   -1    0    0  501  503 -0.00000000000E+00 -0.00000000000E+00 -0.17345992549E+03  0.17345992549E+03  0.00000000000E+00 0.  1.
          6    1    1    2  501    0 -0.96071892951E+02  0.14372210022E+03  0.22263302722E+03  0.33072695009E+03  0.17300000000E+03 0. -1.
         -6    1    1    2    0  502  0.96071892951E+02 -0.14372210022E+03  0.58139138998E+01  0.24463984202E+03  0.17300000000E+03 0.  1.
<mgrwt>
<rscale>  2 0.24457075E+03</rscale>
<asrwt>0</asrwt>
<pdfrwt beam="1">  1       21 0.61831825E-01 0.24457075E+03</pdfrwt>
<pdfrwt beam="2">  1       21 0.26686143E-01 0.24457075E+03</pdfrwt>
<totfact> 0.31627641E+04</totfact>
</mgrwt>
</event>
<event>
 4    1  0.4441180E+000  0.1766035E+03  0.7546771E-02  0.1171131E+00
         21   -1    0    0  503  502  0.00000000000E+00  0.00000000000E+00  0.38364006574E+02  0.38364006574E+02  0.00000000000E+00 0. -1.
         21   -1    0    0  501  503 -0.00000000000E+00 -0.00000000000E+00 -0.81595176141E+03  0.81595176141E+03  0.00000000000E+00 0. -1.
          6    1    1    2  501    0 -0.30427343252E+02 -0.18274610682E+02 -0.41461624548E+03  0.45066108732E+03  0.17300000000E+03 0. -1.
         -6    1    1    2    0  502  0.30427343252E+02  0.18274610682E+02 -0.36297150935E+03  0.40365468065E+03  0.17300000000E+03 0. -1.
<mgrwt>
<rscale>  2 0.17660347E+03</rscale>
<asrwt>0</asrwt>
<pdfrwt beam="1">  1       21 0.59021553E-02 0.17660347E+03</pdfrwt>
<pdfrwt beam="2">  1       21 0.12553103E+00 0.17660347E+03</pdfrwt>
<totfact> 0.96410977E+04</totfact>
</mgrwt>
</event>
<event>
 4    1  0.4441180E+000  0.2022283E+03  0.7546771E-02  0.1147872E+00
         21   -1    0    0  501  502  0.00000000000E+00  0.00000000000E+00  0.46477260549E+03  0.46477260549E+03  0.00000000000E+00 0.  1.
         21   -1    0    0  502  503 -0.00000000000E+00 -0.00000000000E+00 -0.89230738653E+02  0.89230738653E+02  0.00000000000E+00 0. -1.
          6    1    1    2  501    0 -0.96491701755E+02 -0.40701864825E+02  0.22040774674E+03  0.29912516633E+03  0.17300000000E+03 0.  1.
         -6    1    1    2    0  503  0.96491701755E+02  0.40701864825E+02  0.15513412010E+03  0.25487817782E+03  0.17300000000E+03 0. -1.
<mgrwt>
<rscale>  2 0.20222831E+03</rscale>
<asrwt>0</asrwt>
<pdfrwt beam="1">  1       21 0.71503477E-01 0.20222831E+03</pdfrwt>
<pdfrwt beam="2">  1       21 0.13727806E-01 0.20222831E+03</pdfrwt>
<totfact> 0.81111486E+04</totfact>
</mgrwt>
</event>
<event>
 4    1  0.4441180E+000  0.1958015E+03  0.7546771E-02  0.1153330E+00
         21   -1    0    0  503  502  0.00000000000E+00  0.00000000000E+00  0.45155075268E+03  0.45155075268E+03  0.00000000000E+00 0. -1.
         21   -1    0    0  501  503 -0.00000000000E+00 -0.00000000000E+00 -0.94582020784E+02  0.94582020784E+02  0.00000000000E+00 0. -1.
          6    1    1    2  501    0  0.62238923016E+02 -0.67346505030E+02  0.91133212474E+02  0.21597105754E+03  0.17300000000E+03 0. -1.
         -6    1    1    2    0  502 -0.62238923016E+02  0.67346505030E+02  0.26583551943E+03  0.33016171593E+03  0.17300000000E+03 0. -1.
<mgrwt>
<rscale>  2 0.19580152E+03</rscale>
<asrwt>0</asrwt>
<pdfrwt beam="1">  1       21 0.69469345E-01 0.19580152E+03</pdfrwt>
<pdfrwt beam="2">  1       21 0.14551080E-01 0.19580152E+03</pdfrwt>
<totfact> 0.78009114E+04</totfact>
</mgrwt>
</event>
<event>
 4    1  0.4441180E+000  0.1952737E+03  0.7546771E-02  0.1153789E+00
         21   -1    0    0  503  502  0.00000000000E+00  0.00000000000E+00  0.48207069214E+02  0.48207069214E+02  0.00000000000E+00 0. -1.
         21   -1    0    0  501  503 -0.00000000000E+00 -0.00000000000E+00 -0.99548545119E+03  0.99548545119E+03  0.00000000000E+00 0. -1.
          6    1    1    2  501    0 -0.26019019902E+02 -0.86751425580E+02 -0.71015281294E+03  0.73651124701E+03  0.17300000000E+03 0. -1.
         -6    1    1    2    0  502  0.26019019902E+02  0.86751425580E+02 -0.23712556903E+03  0.30718127340E+03  0.17300000000E+03 0. -1.
<mgrwt>
<rscale>  2 0.19527365E+03</rscale>
<asrwt>0</asrwt>
<pdfrwt beam="1">  1       21 0.74164721E-02 0.19527365E+03</pdfrwt>
<pdfrwt beam="2">  1       21 0.15315161E+00 0.19527365E+03</pdfrwt>
<totfact> 0.38666170E+04</totfact>
</mgrwt>
</event>
<event>
 4    1  0.4441180E+000  0.1737454E+03  0.7546771E-02  0.1173997E+00
         21   -1    0    0  501  502  0.00000000000E+00  0.00000000000E+00  0.14790126916E+02  0.14790126916E+02  0.00000000000E+00 0. -1.
         21   -1    0    0  502  503 -0.00000000000E+00 -0.00000000000E+00 -0.27512985778E+04  0.27512985778E+04  0.00000000000E+00 0. -1.
          6    1    1    2  501    0 -0.14302484167E+02 -0.73414842197E+01 -0.66555255305E+03  0.68785729575E+03  0.17300000000E+03 0. -1.
         -6    1    1    2    0  503  0.14302484167E+02  0.73414842197E+01 -0.20709558979E+04  0.20782314090E+04  0.17300000000E+03 0. -1.
<mgrwt>
<rscale>  2 0.17374538E+03</rscale>
<asrwt>0</asrwt>
<pdfrwt beam="1">  1       21 0.22754032E-02 0.17374538E+03</pdfrwt>
<pdfrwt beam="2">  1       21 0.42327688E+00 0.17374538E+03</pdfrwt>
<totfact> 0.63665587E+03</totfact>
</mgrwt>
</event>
<event>
 4    1  0.4441180E+000  0.1921192E+03  0.7546771E-02  0.1156564E+00
         21   -1    0    0  503  502  0.00000000000E+00  0.00000000000E+00  0.36914085805E+03  0.36914085805E+03  0.00000000000E+00 0.  1.
         21   -1    0    0  501  503 -0.00000000000E+00 -0.00000000000E+00 -0.17647886189E+03  0.17647886189E+03  0.00000000000E+00 0.  1.
          6    1    1    2  501    0  0.45942823628E+02  0.69785585323E+02 -0.83273665597E+02  0.20939024415E+03  0.17300000000E+03 0.  1.
         -6    1    1    2    0  502 -0.45942823628E+02 -0.69785585323E+02  0.27593566176E+03  0.33622947579E+03  0.17300000000E+03 0.  1.
<mgrwt>
<rscale>  2 0.19211916E+03</rscale>
<asrwt>0</asrwt>
<pdfrwt beam="1">  1       21 0.56790901E-01 0.19211916E+03</pdfrwt>
<pdfrwt beam="2">  1       21 0.27150594E-01 0.19211916E+03</pdfrwt>
<totfact> 0.37693581E+04</totfact>
</mgrwt>
</event>
<event>
 4    1  0.4441180E+000  0.1755731E+03  0.7546771E-02  0.1172158E+00
         21   -1    0    0  501  502  0.00000000000E+00  0.00000000000E+00  0.16104882160E+03  0.16104882160E+03  0.00000000000E+00 0. -1.
         21   -1    0    0  502  503 -0.00000000000E+00 -0.00000000000E+00 -0.36154740177E+03  0.36154740177E+03  0.00000000000E+00 0. -1.
          6    1    1    2  501    0 -0.23717378897E+02 -0.18286193196E+02  0.78999882989E+02  0.19252760954E+03  0.17300000000E+03 0. -1.
         -6    1    1    2    0  503  0.23717378897E+02  0.18286193196E+02 -0.27949846316E+03  0.33006861383E+03  0.17300000000E+03 0. -1.
<mgrwt>
<rscale>  2 0.17557306E+03</rscale>
<asrwt>0</asrwt>
<pdfrwt beam="1">  1       21 0.24776742E-01 0.17557306E+03</pdfrwt>
<pdfrwt beam="2">  1       21 0.55622677E-01 0.17557306E+03</pdfrwt>
<totfact> 0.47319142E+04</totfact>
</mgrwt>
</event>
<event>
 4    1  0.4441180E+000  0.1853271E+03  0.7546771E-02  0.1162745E+00
         21   -1    0    0  501  502  0.00000000000E+00  0.00000000000E+00  0.75064337411E+02  0.75064337411E+02  0.00000000000E+00 0.  1.
         21   -1    0    0  502  503 -0.00000000000E+00 -0.00000000000E+00 -0.45908985994E+03  0.45908985994E+03  0.00000000000E+00 0. -1.
          6    1    1    2  501    0  0.66398891604E+02  0.28843405079E+01 -0.17657474548E+03  0.25597807127E+03  0.17300000000E+03 0. -1.
         -6    1    1    2    0  503 -0.66398891604E+02 -0.28843405079E+01 -0.20745077704E+03  0.27817612608E+03  0.17300000000E+03 0.  1.
<mgrwt>
<rscale>  2 0.18532710E+03</rscale>
<asrwt>0</asrwt>
<pdfrwt beam="1">  1       21 0.11548360E-01 0.18532710E+03</pdfrwt>
<pdfrwt beam="2">  1       21 0.70629210E-01 0.18532710E+03</pdfrwt>
<totfact> 0.11447870E+05</totfact>
</mgrwt>
</event>
<event>
 4    1  0.4441180E+000  0.1740394E+03  0.7546771E-02  0.1173700E+00
         21   -1    0    0  501  502  0.00000000000E+00  0.00000000000E+00  0.64918979103E+02  0.64918979103E+02  0.00000000000E+00 0. -1.
         21   -1    0    0  502  503 -0.00000000000E+00 -0.00000000000E+00 -0.46899222317E+03  0.46899222317E+03  0.00000000000E+00 0. -1.
          6    1    1    2  501    0  0.18831745660E+02  0.24636784578E+01 -0.18287941038E+03  0.25245709160E+03  0.17300000000E+03 0.  1.
         -6    1    1    2    0  503 -0.18831745660E+02 -0.24636784578E+01 -0.22119383369E+03  0.28145411068E+03  0.17300000000E+03 0.  1.
<mgrwt>
<rscale>  2 0.17403938E+03</rscale>
<asrwt>0</asrwt>
<pdfrwt beam="1">  1       21 0.99875354E-02 0.17403938E+03</pdfrwt>
<pdfrwt beam="2">  1       21 0.72152649E-01 0.17403938E+03</pdfrwt>
<totfact> 0.14184233E+05</totfact>
</mgrwt>
</event>
<event>
 4    1  0.4441180E+000  0.1877954E+03  0.7546771E-02  0.1160465E+00
         21   -1    0    0  503  502  0.00000000000E+00  0.00000000000E+00  0.55412901342E+02  0.55412901342E+02  0.00000000000E+00 0.  1.
         21   -1    0    0  501  503 -0.00000000000E+00 -0.00000000000E+00 -0.11652989017E+04  0.11652989017E+04  0.00000000000E+00 0. -1.
          6    1    1    2  501    0 -0.12031777006E+02  0.72064997377E+02 -0.96612429266E+03  0.98420692762E+03  0.17300000000E+03 0. -1.
         -6    1    1    2    0  502  0.12031777006E+02 -0.72064997377E+02 -0.14376170773E+03  0.23650487546E+03  0.17300000000E+03 0.  1.
<mgrwt>
<rscale>  2 0.18779544E+03</rscale>
<asrwt>0</asrwt>
<pdfrwt beam="1">  1       21 0.85250619E-02 0.18779544E+03</pdfrwt>
<pdfrwt beam="2">  1       21 0.17927675E+00 0.18779544E+03</pdfrwt>
<totfact> 0.19836506E+04</totfact>
</mgrwt>
</event>
<event>
 4    1  0.4441180E+000  0.1754711E+03  0.7546771E-02  0.1172260E+00
         21   -1    0    0  503  502  0.00000000000E+00  0.00000000000E+00  0.12040030555E+03  0.12040030555E+03  0.00000000000E+00 0.  1.
         21   -1    0    0  501  503 -0.00000000000E+00 -0.00000000000E+00 -0.59755014032E+03  0.59755014032E+03  0.00000000000E+00 0.  1.
          6    1    1    2  501    0  0.28229129351E+02  0.80137150535E+01 -0.51007840869E+03  0.53941643132E+03  0.17300000000E+03 0.  1.
         -6    1    1    2    0  502 -0.28229129351E+02 -0.80137150535E+01  0.32928573919E+02  0.17853401456E+03  0.17300000000E+03 0.  1.
<mgrwt>
<rscale>  2 0.17547109E+03</rscale>
<asrwt>0</asrwt>
<pdfrwt beam="1">  1       21 0.18523124E-01 0.17547109E+03</pdfrwt>
<pdfrwt beam="2">  1       21 0.91930789E-01 0.17547109E+03</pdfrwt>
<totfact> 0.26894849E+04</totfact>
</mgrwt>
</event>
<event>
 4    1  0.4441180E+000  0.1956342E+03  0.7546771E-02  0.1153476E+00
         21   -1    0    0  501  502  0.00000000000E+00  0.00000000000E+00  0.32884921239E+03  0.32884921239E+03  0.00000000000E+00 0.  1.
         21   -1    0    0  502  503 -0.00000000000E+00 -0.00000000000E+00 -0.12376553683E+03  0.12376553683E+03  0.00000000000E+00 0. -1.
          6    1    1    2  501    0  0.83311128292E+02 -0.37456740458E+02  0.15781004646E+03  0.25134988018E+03  0.17300000000E+03 0.  1.
         -6    1    1    2    0  503 -0.83311128292E+02  0.37456740458E+02  0.47273629098E+02  0.20126486904E+03  0.17300000000E+03 0. -1.
<mgrwt>
<rscale>  2 0.19563423E+03</rscale>
<asrwt>0</asrwt>
<pdfrwt beam="1">  1       21 0.50592186E-01 0.19563423E+03</pdfrwt>
<pdfrwt beam="2">  1       21 0.19040852E-01 0.19563423E+03</pdfrwt>
<totfact> 0.93940976E+04</totfact>
</mgrwt>
</event>
<event>
 4    1  0.4441180E+000  0.1958353E+03  0.7546771E-02  0.1153301E+00
         21   -1    0    0  503  502  0.00000000000E+00  0.00000000000E+00  0.18860997616E+03  0.18860997616E+03  0.00000000000E+00 0. -1.
         21   -1    0    0  501  503 -0.00000000000E+00 -0.00000000000E+00 -0.20653921536E+03  0.20653921536E+03  0.00000000000E+00 0. -1.
          6    1    1    2  501    0  0.44257461566E+02  0.80397289861E+02  0.15635283300E+02  0.19645841597E+03  0.17300000000E+03 0.  1.
         -6    1    1    2    0  502 -0.44257461566E+02 -0.80397289861E+02 -0.33564522501E+02  0.19869077556E+03  0.17300000000E+03 0.  1.
<mgrwt>
<rscale>  2 0.19583526E+03</rscale>
<asrwt>0</asrwt>
<pdfrwt beam="1">  1       21 0.29016919E-01 0.19583526E+03</pdfrwt>
<pdfrwt beam="2">  1       21 0.31775264E-01 0.19583526E+03</pdfrwt>
<totfact> 0.10814435E+05</totfact>
</mgrwt>
</event>
<event>
 4    1  0.4441180E+000  0.1992107E+03  0.7546771E-02  0.1150407E+00
         21   -1    0    0  501  502  0.00000000000E+00  0.00000000000E+00  0.18711232132E+03  0.18711232132E+03  0.00000000000E+00 0. -1.
         21   -1    0    0  502  503 -0.00000000000E+00 -0.00000000000E+00 -0.21240699845E+03  0.21240699845E+03  0.00000000000E+00 0.  1.
          6    1    1    2  501    0 -0.44916613957E+02  0.87968142590E+02 -0.49461723429E+01  0.19927207767E+03  0.17300000000E+03 0.  1.
         -6    1    1    2    0  503  0.44916613957E+02 -0.87968142590E+02 -0.20348504788E+02  0.20024724210E+03  0.17300000000E+03 0. -1.
<mgrwt>
<rscale>  2 0.19921068E+03</rscale>
<asrwt>0</asrwt>
<pdfrwt beam="1">  1       21 0.28786511E-01 0.19921068E+03</pdfrwt>
<pdfrwt beam="2">  1       21 0.32678000E-01 0.19921068E+03</pdfrwt>
<totfact> 0.10380287E+05</totfact>
</mgrwt>
</event>
<event>
 4    1  0.4441180E+000  0.1863762E+03  0.7546771E-02  0.1161771E+00
         21   -1    0    0  501  502  0.00000000000E+00  0.00000000000E+00  0.43852017931E+03  0.43852017931E+03  0.00000000000E+00 0. -1.
         21   -1    0    0  502  503 -0.00000000000E+00 -0.00000000000E+00 -0.12321934601E+03  0.12321934601E+03  0.00000000000E+00 0. -1.
          6    1    1    2  501    0 -0.15716273451E+01  0.69315283134E+02  0.32550295896E+03  0.37508433023E+03  0.17300000000E+03 0. -1.
         -6    1    1    2    0  503  0.15716273451E+01 -0.69315283134E+02 -0.10202125660E+02  0.18665519510E+03  0.17300000000E+03 0. -1.
<mgrwt>
<rscale>  2 0.18637617E+03</rscale>
<asrwt>0</asrwt>
<pdfrwt beam="1">  1       21 0.67464642E-01 0.18637617E+03</pdfrwt>
<pdfrwt beam="2">  1       21 0.18956823E-01 0.18637617E+03</pdfrwt>
<totfact> 0.51403176E+04</totfact>
</mgrwt>
</event>
<event>
 4    1  0.4441180E+000  0.3498152E+03  0.7546771E-02  0.1062691E+00
         21   -1    0    0  501  502  0.00000000000E+00  0.00000000000E+00  0.93880642339E+03  0.93880642339E+03  0.00000000000E+00 0.  1.
         21   -1    0    0  502  503 -0.00000000000E+00 -0.00000000000E+00 -0.13286911105E+03  0.13286911105E+03  0.00000000000E+00 0. -1.
          6    1    1    2  501    0  0.30238190975E+03 -0.31731522066E+02  0.47679196494E+03  0.59135546558E+03  0.17300000000E+03 0.  1.
         -6    1    1    2    0  503 -0.30238190975E+03  0.31731522066E+02  0.32914534740E+03  0.48032006886E+03  0.17300000000E+03 0. -1.
<mgrwt>
<rscale>  2 0.34981525E+03</rscale>
<asrwt>0</asrwt>
<pdfrwt beam="1">  1       21 0.14443175E+00 0.34981525E+03</pdfrwt>
<pdfrwt beam="2">  1       21 0.20441402E-01 0.34981525E+03</pdfrwt>
<totfact> 0.66613274E+03</totfact>
</mgrwt>
</event>
<event>
 4    1  0.4441180E+000  0.1831706E+03  0.7546771E-02  0.1164769E+00
         21   -1    0    0  503  502  0.00000000000E+00  0.00000000000E+00  0.13320993500E+04  0.13320993500E+04  0.00000000000E+00 0. -1.
         21   -1    0    0  501  503 -0.00000000000E+00 -0.00000000000E+00 -0.31488095488E+02  0.31488095488E+02  0.00000000000E+00 0. -1.
          6    1    1    2  501    0 -0.27854279419E+02  0.53353631723E+02  0.95529929189E+03  0.97270149994E+03  0.17300000000E+03 0. -1.
         -6    1    1    2    0  502  0.27854279419E+02 -0.53353631723E+02  0.34531196265E+03  0.39088594558E+03  0.17300000000E+03 0. -1.
<mgrwt>
<rscale>  2 0.18317061E+03</rscale>
<asrwt>0</asrwt>
<pdfrwt beam="1">  1       21 0.20493832E+00 0.18317061E+03</pdfrwt>
<pdfrwt beam="2">  1       21 0.48443234E-02 0.18317061E+03</pdfrwt>
<totfact> 0.35678370E+04</totfact>
</mgrwt>
</event>
<event>
 4    1  0.4441180E+000  0.1757752E+03  0.7546771E-02  0.1171956E+00
         21   -1    0    0  503  502  0.00000000000E+00  0.00000000000E+00  0.26983763139E+03  0.26983763139E+03  0.00000000000E+00 0. -1.
         21   -1    0    0  501  503 -0.00000000000E+00 -0.00000000000E+00 -0.20083194840E+03  0.20083194840E+03  0.00000000000E+00 0. -1.
          6    1    1    2  501    0 -0.22904961252E+02 -0.21054426408E+02 -0.11979174273E+03  0.21271339344E+03  0.17300000000E+03 0. -1.
         -6    1    1    2    0  502  0.22904961252E+02  0.21054426408E+02  0.18879742572E+03  0.25795618636E+03  0.17300000000E+03 0. -1.
<mgrwt>
<rscale>  2 0.17577521E+03</rscale>
<asrwt>0</asrwt>
<pdfrwt beam="1">  1       21 0.41513482E-01 0.17577521E+03</pdfrwt>
<pdfrwt beam="2">  1       21 0.30897223E-01 0.17577521E+03</pdfrwt>
<totfact> 0.56642591E+04</totfact>
</mgrwt>
</event>
<event>
 4    1  0.4441180E+000  0.2114190E+03  0.7546771E-02  0.1140447E+00
         21   -1    0    0  503  502  0.00000000000E+00  0.00000000000E+00  0.33214920945E+02  0.33214920945E+02  0.00000000000E+00 0.  1.
         21   -1    0    0  501  503 -0.00000000000E+00 -0.00000000000E+00 -0.19181289436E+04  0.19181289436E+04  0.00000000000E+00 0. -1.
          6    1    1    2  501    0 -0.12140952784E+03 -0.53588761881E+01 -0.14754457473E+04  0.14905160664E+04  0.17300000000E+03 0. -1.
         -6    1    1    2    0  502  0.12140952784E+03  0.53588761881E+01 -0.40946827530E+03  0.46082779808E+03  0.17300000000E+03 0.  1.
<mgrwt>
<rscale>  2 0.21141899E+03</rscale>
<asrwt>0</asrwt>
<pdfrwt beam="1">  1       21 0.51099889E-02 0.21141899E+03</pdfrwt>
<pdfrwt beam="2">  1       21 0.29509670E+00 0.21141899E+03</pdfrwt>
<totfact> 0.92617915E+03</totfact>
</mgrwt>
</event>
<event>
 4    1  0.4441180E+000  0.3199301E+03  0.7546771E-02  0.1075681E+00
         21   -1    0    0  501  502  0.00000000000E+00  0.00000000000E+00  0.24968204987E+03  0.24968204987E+03  0.00000000000E+00 0. -1.
         21   -1    0    0  502  503 -0.00000000000E+00 -0.00000000000E+00 -0.45949916866E+03  0.45949916866E+03  0.00000000000E+00 0.  1.
          6    1    1    2  501    0 -0.26701065248E+03  0.33638911646E+02 -0.22135768911E+03  0.38904304574E+03  0.17300000000E+03 0.  1.
         -6    1    1    2    0  503  0.26701065248E+03 -0.33638911646E+02  0.11540570326E+02  0.32013817279E+03  0.17300000000E+03 0.  1.
<mgrwt>
<rscale>  2 0.31993009E+03</rscale>
<asrwt>0</asrwt>
<pdfrwt beam="1">  1       21 0.38412623E-01 0.31993009E+03</pdfrwt>
<pdfrwt beam="2">  1       21 0.70692180E-01 0.31993009E+03</pdfrwt>
<totfact> 0.11071012E+04</totfact>
</mgrwt>
</event>
<event>
 4    1  0.4441180E+000  0.1908470E+03  0.7546771E-02  0.1157700E+00
         21   -1    0    0  503  502  0.00000000000E+00  0.00000000000E+00  0.67182016815E+02  0.67182016815E+02  0.00000000000E+00 0.  1.
         21   -1    0    0  501  503 -0.00000000000E+00 -0.00000000000E+00 -0.58340588618E+03  0.58340588618E+03  0.00000000000E+00 0.  1.
          6    1    1    2  501    0  0.65327874492E+02 -0.47179022665E+02 -0.34461757770E+03  0.39393383483E+03  0.17300000000E+03 0. -1.
         -6    1    1    2    0  502 -0.65327874492E+02  0.47179022665E+02 -0.17160629166E+03  0.25665406816E+03  0.17300000000E+03 0. -1.
<mgrwt>
<rscale>  2 0.19084704E+03</rscale>
<asrwt>0</asrwt>
<pdfrwt beam="1">  1       21 0.10335695E-01 0.19084704E+03</pdfrwt>
<pdfrwt beam="2">  1       21 0.89754754E-01 0.19084704E+03</pdfrwt>
<totfact> 0.80988362E+04</totfact>
</mgrwt>
</event>
<event>
 4    1  0.4441180E+000  0.2482870E+03  0.7546771E-02  0.1114392E+00
         21   -1    0    0  501  502  0.00000000000E+00  0.00000000000E+00  0.45108761227E+03  0.45108761227E+03  0.00000000000E+00 0.  1.
         21   -1    0    0  502  503 -0.00000000000E+00 -0.00000000000E+00 -0.16874432896E+03  0.16874432896E+03  0.00000000000E+00 0.  1.
          6    1    1    2  501    0  0.71343269164E+02 -0.16317956398E+03  0.27630539974E+03  0.37147154142E+03  0.17300000000E+03 0.  1.
         -6    1    1    2    0  503 -0.71343269164E+02  0.16317956398E+03  0.60378835619E+01  0.24836039981E+03  0.17300000000E+03 0.  1.
<mgrwt>
<rscale>  2 0.24828700E+03</rscale>
<asrwt>0</asrwt>
<pdfrwt beam="1">  1       21 0.69398094E-01 0.24828700E+03</pdfrwt>
<pdfrwt beam="2">  1       21 0.25960666E-01 0.24828700E+03</pdfrwt>
<totfact> 0.25850995E+04</totfact>
</mgrwt>
</event>
<event>
 4    1  0.4441180E+000  0.1871907E+03  0.7546771E-02  0.1161020E+00
         21   -1    0    0  501  502  0.00000000000E+00  0.00000000000E+00  0.31488996055E+04  0.31488996055E+04  0.00000000000E+00 0.  1.
         21   -1    0    0  502  503 -0.00000000000E+00 -0.00000000000E+00 -0.12639909763E+02  0.12639909763E+02  0.00000000000E+00 0. -1.
          6    1    1    2  501    0  0.14048762032E+02 -0.70099931101E+02  0.21148767467E+04  0.21231448424E+04  0.17300000000E+03 0.  1.
         -6    1    1    2    0  503 -0.14048762032E+02  0.70099931101E+02  0.10213829490E+04  0.10383946728E+04  0.17300000000E+03 0. -1.
<mgrwt>
<rscale>  2 0.18719073E+03</rscale>
<asrwt>0</asrwt>
<pdfrwt beam="1">  1       21 0.48444547E+00 0.18719073E+03</pdfrwt>
<pdfrwt beam="2">  1       21 0.19446040E-02 0.18719073E+03</pdfrwt>
<totfact> 0.31587581E+03</totfact>
</mgrwt>
</event>
<event>
 4    1  0.4441180E+000  0.2947723E+03  0.7546771E-02  0.1087883E+00
         21   -1    0    0  501  502  0.00000000000E+00  0.00000000000E+00  0.62658888854E+03  0.62658888854E+03  0.00000000000E+00 0. -1.
         21   -1    0    0  502  503 -0.00000000000E+00 -0.00000000000E+00 -0.13889147336E+03  0.13889147336E+03  0.00000000000E+00 0.  1.
          6    1    1    2  501    0 -0.23637519670E+03  0.32992179749E+02  0.22865543726E+03  0.37306035240E+03  0.17300000000E+03 0.  1.
         -6    1    1    2    0  503  0.23637519670E+03 -0.32992179749E+02  0.25904197791E+03  0.39242000951E+03  0.17300000000E+03 0. -1.
<mgrwt>
<rscale>  2 0.29477231E+03</rscale>
<asrwt>0</asrwt>
<pdfrwt beam="1">  1       21 0.96398289E-01 0.29477231E+03</pdfrwt>
<pdfrwt beam="2">  1       21 0.21367919E-01 0.29477231E+03</pdfrwt>
<totfact> 0.17297541E+04</totfact>
</mgrwt>
</event>
<event>
 4    1  0.4441180E+000  0.1897828E+03  0.7546771E-02  0.1158657E+00
         21   -1    0    0  503  502  0.00000000000E+00  0.00000000000E+00  0.43962357709E+03  0.43962357709E+03  0.00000000000E+00 0.  1.
         21   -1    0    0  501  503 -0.00000000000E+00 -0.00000000000E+00 -0.82718584356E+02  0.82718584356E+02  0.00000000000E+00 0.  1.
          6    1    1    2  501    0  0.70399443049E+02  0.33651626380E+02  0.15292095957E+03  0.24372593915E+03  0.17300000000E+03 0. -1.
         -6    1    1    2    0  502 -0.70399443049E+02 -0.33651626380E+02  0.20398403316E+03  0.27861622229E+03  0.17300000000E+03 0. -1.
<mgrwt>
<rscale>  2 0.18978281E+03</rscale>
<asrwt>0</asrwt>
<pdfrwt beam="1">  1       21 0.67634395E-01 0.18978281E+03</pdfrwt>
<pdfrwt beam="2">  1       21 0.12725936E-01 0.18978281E+03</pdfrwt>
<totfact> 0.10566378E+05</totfact>
</mgrwt>
</event>
<event>
 4    1  0.4441180E+000  0.1787685E+03  0.7546771E-02  0.1169000E+00
         21   -1    0    0  503  502  0.00000000000E+00  0.00000000000E+00  0.16375205008E+03  0.16375205008E+03  0.00000000000E+00 0.  1.
         21   -1    0    0  501  503 -0.00000000000E+00 -0.00000000000E+00 -0.30380426014E+03  0.30380426014E+03  0.00000000000E+00 0.  1.
          6    1    1    2  501    0 -0.44011215752E+02  0.96018439437E+01 -0.20982583518E+03  0.27565388375E+03  0.17300000000E+03 0.  1.
         -6    1    1    2    0  502  0.44011215752E+02 -0.96018439437E+01  0.69773625129E+02  0.19190242646E+03  0.17300000000E+03 0.  1.
<mgrwt>
<rscale>  2 0.17876852E+03</rscale>
<asrwt>0</asrwt>
<pdfrwt beam="1">  1       21 0.25192623E-01 0.17876852E+03</pdfrwt>
<pdfrwt beam="2">  1       21 0.46739116E-01 0.17876852E+03</pdfrwt>
<totfact> 0.65814097E+04</totfact>
</mgrwt>
</event>
<event>
 4    1  0.4441180E+000  0.1785282E+03  0.7546771E-02  0.1169235E+00
         21   -1    0    0  501  502  0.00000000000E+00  0.00000000000E+00  0.77194838317E+02  0.77194838317E+02  0.00000000000E+00 0. -1.
         21   -1    0    0  502  503 -0.00000000000E+00 -0.00000000000E+00 -0.44865152823E+03  0.44865152823E+03  0.00000000000E+00 0. -1.
          6    1    1    2  501    0 -0.21691786106E+02 -0.38377103207E+02 -0.11148923304E+03  0.21048084169E+03  0.17300000000E+03 0. -1.
         -6    1    1    2    0  503  0.21691786106E+02  0.38377103207E+02 -0.25996745687E+03  0.31536552486E+03  0.17300000000E+03 0. -1.
<mgrwt>
<rscale>  2 0.17852825E+03</rscale>
<asrwt>0</asrwt>
<pdfrwt beam="1">  1       21 0.11876129E-01 0.17852825E+03</pdfrwt>
<pdfrwt beam="2">  1       21 0.69023311E-01 0.17852825E+03</pdfrwt>
<totfact> 0.11484930E+05</totfact>
</mgrwt>
</event>
<event>
 4    1  0.4441180E+000  0.2032130E+03  0.7546771E-02  0.1147056E+00
         21   -1    0    0  501  502  0.00000000000E+00  0.00000000000E+00  0.17929455173E+04  0.17929455173E+04  0.00000000000E+00 0. -1.
         21   -1    0    0  502  503 -0.00000000000E+00 -0.00000000000E+00 -0.23101053327E+02  0.23101053327E+02  0.00000000000E+00 0.  1.
          6    1    1    2  501    0 -0.88372740996E+02 -0.59638667857E+02  0.83535590741E+03  0.85971797940E+03  0.17300000000E+03 0.  1.
         -6    1    1    2    0  503  0.88372740996E+02  0.59638667857E+02  0.93448855657E+03  0.95632859124E+03  0.17300000000E+03 0. -1.
<mgrwt>
<rscale>  2 0.20321297E+03</rscale>
<asrwt>0</asrwt>
<pdfrwt beam="1">  1       21 0.27583766E+00 0.20321297E+03</pdfrwt>
<pdfrwt beam="2">  1       21 0.35540096E-02 0.20321297E+03</pdfrwt>
<totfact> 0.22242052E+04</totfact>
</mgrwt>
</event>
<event>
 4    1  0.4441180E+000  0.1808326E+03  0.7546771E-02  0.1167000E+00
         21   -1    0    0  503  502  0.00000000000E+00  0.00000000000E+00  0.22901340545E+03  0.22901340545E+03  0.00000000000E+00 0.  1.
         21   -1    0    0  501  503 -0.00000000000E+00 -0.00000000000E+00 -0.14631203042E+03  0.14631203042E+03  0.00000000000E+00 0.  1.
          6    1    1    2  501    0 -0.22349051721E+02  0.47664782340E+02  0.70474322449E+02  0.19407998792E+03  0.17300000000E+03 0.  1.
         -6    1    1    2    0  502  0.22349051721E+02 -0.47664782340E+02  0.12227052581E+02  0.18124544795E+03  0.17300000000E+03 0.  1.
<mgrwt>
<rscale>  2 0.18083255E+03</rscale>
<asrwt>0</asrwt>
<pdfrwt beam="1">  1       21 0.35232832E-01 0.18083255E+03</pdfrwt>
<pdfrwt beam="2">  1       21 0.22509543E-01 0.18083255E+03</pdfrwt>
<totfact> 0.14413217E+05</totfact>
</mgrwt>
</event>
<event>
 4    1  0.4441180E+000  0.1855055E+03  0.7546771E-02  0.1162579E+00
         21   -1    0    0  501  502  0.00000000000E+00  0.00000000000E+00  0.19693612106E+03  0.19693612106E+03  0.00000000000E+00 0.  1.
         21   -1    0    0  502  503 -0.00000000000E+00 -0.00000000000E+00 -0.52512208362E+03  0.52512208362E+03  0.00000000000E+00 0. -1.
          6    1    1    2  501    0  0.10498926129E+01 -0.66949265556E+02  0.13081328149E+03  0.22698991397E+03  0.17300000000E+03 0.  1.
         -6    1    1    2    0  503 -0.10498926129E+01  0.66949265556E+02 -0.45899924405E+03  0.49506829071E+03  0.17300000000E+03 0. -1.
<mgrwt>
<rscale>  2 0.18550554E+03</rscale>
<asrwt>0</asrwt>
<pdfrwt beam="1">  1       21 0.30297864E-01 0.18550554E+03</pdfrwt>
<pdfrwt beam="2">  1       21 0.80788014E-01 0.18550554E+03</pdfrwt>
<totfact> 0.14126298E+04</totfact>
</mgrwt>
</event>
<event>
 4    1  0.4441180E+000  0.2316096E+03  0.7546771E-02  0.1125512E+00
         21   -1    0    0  503  502  0.00000000000E+00  0.00000000000E+00  0.63166265399E+03  0.63166265399E+03  0.00000000000E+00 0.  1.
         21   -1    0    0  501  503 -0.00000000000E+00 -0.00000000000E+00 -0.17238420149E+03  0.17238420149E+03  0.00000000000E+00 0. -1.
          6    1    1    2  501    0  0.95991671625E+02  0.12041440329E+03 -0.56718566886E+02  0.23845340293E+03  0.17300000000E+03 0. -1.
         -6    1    1    2    0  502 -0.95991671625E+02 -0.12041440329E+03  0.51599701940E+03  0.56559345255E+03  0.17300000000E+03 0.  1.
<mgrwt>
<rscale>  2 0.23160965E+03</rscale>
<asrwt>0</asrwt>
<pdfrwt beam="1">  1       21 0.97178869E-01 0.23160965E+03</pdfrwt>
<pdfrwt beam="2">  1       21 0.26520647E-01 0.23160965E+03</pdfrwt>
<totfact> 0.11585510E+04</totfact>
</mgrwt>
</event>
<event>
 4    1  0.4441180E+000  0.1915232E+03  0.7546771E-02  0.1157095E+00
         21   -1    0    0  501  502  0.00000000000E+00  0.00000000000E+00  0.10797848431E+03  0.10797848431E+03  0.00000000000E+00 0.  1.
         21   -1    0    0  502  503 -0.00000000000E+00 -0.00000000000E+00 -0.46838402380E+03  0.46838402380E+03  0.00000000000E+00 0.  1.
          6    1    1    2  501    0 -0.34088563671E+02  0.74766987777E+02 -0.29155160685E+02  0.19372959513E+03  0.17300000000E+03 0.  1.
         -6    1    1    2    0  503  0.34088563671E+02 -0.74766987777E+02 -0.33125037881E+03  0.38263291298E+03  0.17300000000E+03 0.  1.
<mgrwt>
<rscale>  2 0.19152319E+03</rscale>
<asrwt>0</asrwt>
<pdfrwt beam="1">  1       21 0.16612075E-01 0.19152319E+03</pdfrwt>
<pdfrwt beam="2">  1       21 0.72059080E-01 0.19152319E+03</pdfrwt>
<totfact> 0.56598533E+04</totfact>
</mgrwt>
</event>
<event>
 4    1  0.4441180E+000  0.1801577E+03  0.7546771E-02  0.1167651E+00
         21   -1    0    0  503  502  0.00000000000E+00  0.00000000000E+00  0.96710918831E+02  0.96710918831E+02  0.00000000000E+00 0. -1.
         21   -1    0    0  501  503 -0.00000000000E+00 -0.00000000000E+00 -0.90720724064E+03  0.90720724064E+03  0.00000000000E+00 0. -1.
          6    1    1    2  501    0 -0.10721681928E+02 -0.49120726207E+02 -0.80368684961E+03  0.82363180636E+03  0.17300000000E+03 0. -1.
         -6    1    1    2    0  502  0.10721681928E+02  0.49120726207E+02 -0.68094721949E+01  0.18028635311E+03  0.17300000000E+03 0. -1.
<mgrwt>
<rscale>  2 0.18015771E+03</rscale>
<asrwt>0</asrwt>
<pdfrwt beam="1">  1       21 0.14878603E-01 0.18015771E+03</pdfrwt>
<pdfrwt beam="2">  1       21 0.13957034E+00 0.18015771E+03</pdfrwt>
<totfact> 0.14486711E+04</totfact>
</mgrwt>
</event>
<event>
 4    1  0.4441180E+000  0.1774560E+03  0.7546771E-02  0.1170288E+00
         21   -1    0    0  501  502  0.00000000000E+00  0.00000000000E+00  0.16593842835E+03  0.16593842835E+03  0.00000000000E+00 0.  1.
         21   -1    0    0  502  503 -0.00000000000E+00 -0.00000000000E+00 -0.25198257284E+03  0.25198257284E+03  0.00000000000E+00 0. -1.
          6    1    1    2  501    0  0.22685279055E+02  0.32357385824E+02  0.60804326197E+02  0.18758408351E+03  0.17300000000E+03 0.  1.
         -6    1    1    2    0  503 -0.22685279055E+02 -0.32357385824E+02 -0.14684847068E+03  0.23033691768E+03  0.17300000000E+03 0. -1.
<mgrwt>
<rscale>  2 0.17745597E+03</rscale>
<asrwt>0</asrwt>
<pdfrwt beam="1">  1       21 0.25528989E-01 0.17745597E+03</pdfrwt>
<pdfrwt beam="2">  1       21 0.38766549E-01 0.17745597E+03</pdfrwt>
<totfact> 0.93919659E+04</totfact>
</mgrwt>
</event>
<event>
 4    1  0.4441180E+000  0.2562097E+03  0.7546771E-02  0.1109442E+00
         21   -1    0    0  503  502  0.00000000000E+00  0.00000000000E+00  0.43142423615E+02  0.43142423615E+02  0.00000000000E+00 0. -1.
         21   -1    0    0  501  503 -0.00000000000E+00 -0.00000000000E+00 -0.15607379026E+04  0.15607379026E+04  0.00000000000E+00 0. -1.
          6    1    1    2  501    0 -0.50288617007E+02 -0.18216883919E+03 -0.63172769477E+03  0.68170617667E+03  0.17300000000E+03 0. -1.
         -6    1    1    2    0  502  0.50288617007E+02  0.18216883919E+03 -0.88586778419E+03  0.92217414952E+03  0.17300000000E+03 0. -1.
<mgrwt>
<rscale>  2 0.25620974E+03</rscale>
<asrwt>0</asrwt>
<pdfrwt beam="1">  1       21 0.66372957E-02 0.25620974E+03</pdfrwt>
<pdfrwt beam="2">  1       21 0.24011353E+00 0.25620974E+03</pdfrwt>
<totfact> 0.11985886E+04</totfact>
</mgrwt>
</event>
<event>
 4    1  0.4441180E+000  0.1942125E+03  0.7546771E-02  0.1154716E+00
         21   -1    0    0  503  502  0.00000000000E+00  0.00000000000E+00  0.40157484167E+02  0.40157484167E+02  0.00000000000E+00 0.  1.
         21   -1    0    0  501  503 -0.00000000000E+00 -0.00000000000E+00 -0.94013468324E+03  0.94013468324E+03  0.00000000000E+00 0. -1.
          6    1    1    2  501    0 -0.18632122416E+02  0.86269060411E+02 -0.43507819748E+03  0.47645728527E+03  0.17300000000E+03 0. -1.
         -6    1    1    2    0  502  0.18632122416E+02 -0.86269060411E+02 -0.46489900160E+03  0.50383488214E+03  0.17300000000E+03 0.  1.
<mgrwt>
<rscale>  2 0.19421253E+03</rscale>
<asrwt>0</asrwt>
<pdfrwt beam="1">  1       21 0.61780752E-02 0.19421253E+03</pdfrwt>
<pdfrwt beam="2">  1       21 0.14463609E+00 0.19421253E+03</pdfrwt>
<totfact> 0.61617480E+04</totfact>
</mgrwt>
</event>
<event>
 4    1  0.4441180E+000  0.2893309E+03  0.7546771E-02  0.1090699E+00
         21   -1    0    0  503  502  0.00000000000E+00  0.00000000000E+00  0.26925171478E+04  0.26925171478E+04  0.00000000000E+00 0. -1.
         21   -1    0    0  501  503 -0.00000000000E+00 -0.00000000000E+00 -0.31116774953E+02  0.31116774953E+02  0.00000000000E+00 0. -1.
          6    1    1    2  501    0  0.21492283083E+03 -0.87129614821E+02  0.13700795281E+04  0.14002965065E+04  0.17300000000E+03 0. -1.
         -6    1    1    2    0  502 -0.21492283083E+03  0.87129614821E+02  0.12913208448E+04  0.13233374162E+04  0.17300000000E+03 0. -1.
<mgrwt>
<rscale>  2 0.28933094E+03</rscale>
<asrwt>0</asrwt>
<pdfrwt beam="1">  1       21 0.41423322E+00 0.28933094E+03</pdfrwt>
<pdfrwt beam="2">  1       21 0.47871983E-02 0.28933094E+03</pdfrwt>
<totfact> 0.18290771E+03</totfact>
</mgrwt>
</event>
<event>
 4    1  0.4441180E+000  0.1760278E+03  0.7546771E-02  0.1171704E+00
         21   -1    0    0  503  502  0.00000000000E+00  0.00000000000E+00  0.27574692271E+03  0.27574692271E+03  0.00000000000E+00 0.  1.
         21   -1    0    0  501  503 -0.00000000000E+00 -0.00000000000E+00 -0.27044646211E+03  0.27044646211E+03  0.00000000000E+00 0.  1.
          6    1    1    2  501    0  0.31424072517E+02 -0.83258631240E+01 -0.20613935930E+03  0.27107052179E+03  0.17300000000E+03 0.  1.
         -6    1    1    2    0  502 -0.31424072517E+02  0.83258631240E+01  0.21143981990E+03  0.27512286304E+03  0.17300000000E+03 0.  1.
<mgrwt>
<rscale>  2 0.17602782E+03</rscale>
<asrwt>0</asrwt>
<pdfrwt beam="1">  1       21 0.42422604E-01 0.17602782E+03</pdfrwt>
<pdfrwt beam="2">  1       21 0.41607148E-01 0.17602782E+03</pdfrwt>
<totfact> 0.30002874E+04</totfact>
</mgrwt>
</event>
<event>
 4    1  0.4441180E+000  0.1786399E+03  0.7546771E-02  0.1169126E+00
         21   -1    0    0  503  502  0.00000000000E+00  0.00000000000E+00  0.27456790613E+03  0.27456790613E+03  0.00000000000E+00 0.  1.
         21   -1    0    0  501  503 -0.00000000000E+00 -0.00000000000E+00 -0.14117730330E+03  0.14117730330E+03  0.00000000000E+00 0.  1.
          6    1    1    2  501    0  0.39227818214E+02  0.21080652423E+02 -0.20692812042E+02  0.17983439076E+03  0.17300000000E+03 0. -1.
         -6    1    1    2    0  502 -0.39227818214E+02 -0.21080652423E+02  0.15408341487E+03  0.23591081867E+03  0.17300000000E+03 0. -1.
<mgrwt>
<rscale>  2 0.17863990E+03</rscale>
<asrwt>0</asrwt>
<pdfrwt beam="1">  1       21 0.42241216E-01 0.17863990E+03</pdfrwt>
<pdfrwt beam="2">  1       21 0.21719585E-01 0.17863990E+03</pdfrwt>
<totfact> 0.10720011E+05</totfact>
</mgrwt>
</event>
<event>
 4    1  0.4441180E+000  0.1977103E+03  0.7546771E-02  0.1151685E+00
         21   -1    0    0  503  502  0.00000000000E+00  0.00000000000E+00  0.80825014968E+03  0.80825014968E+03  0.00000000000E+00 0.  1.
         21   -1    0    0  501  503 -0.00000000000E+00 -0.00000000000E+00 -0.53699823825E+02  0.53699823825E+02  0.00000000000E+00 0.  1.
          6    1    1    2  501    0 -0.62090264040E+02 -0.72836639472E+02  0.24140993276E+03  0.31203867160E+03  0.17300000000E+03 0.  1.
         -6    1    1    2    0  502  0.62090264040E+02  0.72836639472E+02  0.51314039310E+03  0.54991130191E+03  0.17300000000E+03 0.  1.
<mgrwt>
<rscale>  2 0.19771034E+03</rscale>
<asrwt>0</asrwt>
<pdfrwt beam="1">  1       21 0.12434617E+00 0.19771034E+03</pdfrwt>
<pdfrwt beam="2">  1       21 0.82615120E-02 0.19771034E+03</pdfrwt>
<totfact> 0.54693063E+04</totfact>
</mgrwt>
</event>
<event>
 4    1  0.4441180E+000  0.1890823E+03  0.7546771E-02  0.1159292E+00
         21   -1    0    0  501  502  0.00000000000E+00  0.00000000000E+00  0.33046151354E+03  0.33046151354E+03  0.00000000000E+00 0.  1.
         21   -1    0    0  502  503 -0.00000000000E+00 -0.00000000000E+00 -0.27763170505E+03  0.27763170505E+03  0.00000000000E+00 0.  1.
          6    1    1    2  501    0 -0.15577466035E+02  0.74702499853E+02  0.26394452184E+03  0.32468266283E+03  0.17300000000E+03 0.  1.
         -6    1    1    2    0  503  0.15577466035E+02 -0.74702499853E+02 -0.21111471335E+03  0.28341055577E+03  0.17300000000E+03 0.  1.
<mgrwt>
<rscale>  2 0.18908231E+03</rscale>
<asrwt>0</asrwt>
<pdfrwt beam="1">  1       21 0.50840233E-01 0.18908231E+03</pdfrwt>
<pdfrwt beam="2">  1       21 0.42712570E-01 0.18908231E+03</pdfrwt>
<totfact> 0.19444925E+04</totfact>
</mgrwt>
</event>
<event>
 4    1  0.4441180E+000  0.1960896E+03  0.7546771E-02  0.1153081E+00
         21   -1    0    0  503  502  0.00000000000E+00  0.00000000000E+00  0.38931640385E+03  0.38931640385E+03  0.00000000000E+00 0. -1.
         21   -1    0    0  501  503 -0.00000000000E+00 -0.00000000000E+00 -0.99108076333E+02  0.99108076333E+02  0.00000000000E+00 0. -1.
          6    1    1    2  501    0 -0.57549913713E+02 -0.72181326400E+02  0.15945631596E+03  0.25273989228E+03  0.17300000000E+03 0. -1.
         -6    1    1    2    0  502  0.57549913713E+02  0.72181326400E+02  0.13075201156E+03  0.23568458790E+03  0.17300000000E+03 0. -1.
<mgrwt>
<rscale>  2 0.19608961E+03</rscale>
<asrwt>0</asrwt>
<pdfrwt beam="1">  1       21 0.59894831E-01 0.19608961E+03</pdfrwt>
<pdfrwt beam="2">  1       21 0.15247397E-01 0.19608961E+03</pdfrwt>
<totfact> 0.98899508E+04</totfact>
</mgrwt>
</event>
<event>
 4    1  0.4441180E+000  0.1751817E+03  0.7546771E-02  0.1172549E+00
         21   -1    0    0  501  502  0.00000000000E+00  0.00000000000E+00  0.92817066867E+02  0.92817066867E+02  0.00000000000E+00 0.  1.
         21   -1    0    0  502  503 -0.00000000000E+00 -0.00000000000E+00 -0.41033206626E+03  0.41033206626E+03  0.00000000000E+00 0. -1.
          6    1    1    2  501    0  0.27536686499E+02 -0.11674829378E+01 -0.26962860444E+03  0.32154038075E+03  0.17300000000E+03 0. -1.
         -6    1    1    2    0  503 -0.27536686499E+02  0.11674829378E+01 -0.47886394956E+02  0.18160875238E+03  0.17300000000E+03 0.  1.
<mgrwt>
<rscale>  2 0.17518171E+03</rscale>
<asrwt>0</asrwt>
<pdfrwt beam="1">  1       21 0.14279549E-01 0.17518171E+03</pdfrwt>
<pdfrwt beam="2">  1       21 0.63128008E-01 0.17518171E+03</pdfrwt>
<totfact> 0.10029899E+05</totfact>
</mgrwt>
</event>
<event>
 4    1  0.4441180E+000  0.2566991E+03  0.7546771E-02  0.1109143E+00
         21   -1    0    0  501  502  0.00000000000E+00  0.00000000000E+00  0.23634446541E+04  0.23634446541E+04  0.00000000000E+00 0. -1.
         21   -1    0    0  502  503 -0.00000000000E+00 -0.00000000000E+00 -0.27915302911E+02  0.27915302911E+02  0.00000000000E+00 0.  1.
          6    1    1    2  501    0 -0.18175722959E+03  0.54126993461E+02  0.11256499086E+04  0.11545484567E+04  0.17300000000E+03 0. -1.
         -6    1    1    2    0  503  0.18175722959E+03 -0.54126993461E+02  0.12098794426E+04  0.12368115004E+04  0.17300000000E+03 0. -1.
<mgrwt>
<rscale>  2 0.25669909E+03</rscale>
<asrwt>0</asrwt>
<pdfrwt beam="1">  1       21 0.36360671E+00 0.25669909E+03</pdfrwt>
<pdfrwt beam="2">  1       21 0.42946638E-02 0.25669909E+03</pdfrwt>
<totfact> 0.46969948E+03</totfact>
</mgrwt>
</event>
<event>
 4    1  0.4441180E+000  0.1782801E+03  0.7546771E-02  0.1169478E+00
         21   -1    0    0  503  502  0.00000000000E+00  0.00000000000E+00  0.81773257078E+03  0.81773257078E+03  0.00000000000E+00 0. -1.
         21   -1    0    0  501  503 -0.00000000000E+00 -0.00000000000E+00 -0.49967318818E+02  0.49967318818E+02  0.00000000000E+00 0. -1.
          6    1    1    2  501    0  0.40341461927E+02 -0.15077992927E+02  0.58835804230E+03  0.61477554063E+03  0.17300000000E+03 0. -1.
         -6    1    1    2    0  502 -0.40341461927E+02  0.15077992927E+02  0.17940720967E+03  0.25292434897E+03  0.17300000000E+03 0. -1.
<mgrwt>
<rscale>  2 0.17828006E+03</rscale>
<asrwt>0</asrwt>
<pdfrwt beam="1">  1       21 0.12580500E+00 0.17828006E+03</pdfrwt>
<pdfrwt beam="2">  1       21 0.76872804E-02 0.17828006E+03</pdfrwt>
<totfact> 0.60814085E+04</totfact>
</mgrwt>
</event>
<event>
 4    1  0.4441180E+000  0.1881781E+03  0.7546771E-02  0.1160115E+00
         21   -1    0    0  503  502  0.00000000000E+00  0.00000000000E+00  0.16088952973E+03  0.16088952973E+03  0.00000000000E+00 0.  1.
         21   -1    0    0  501  503 -0.00000000000E+00 -0.00000000000E+00 -0.25703117462E+03  0.25703117462E+03  0.00000000000E+00 0.  1.
          6    1    1    2  501    0 -0.47853310100E+02  0.56498223998E+02 -0.12728386089E+03  0.22718311963E+03  0.17300000000E+03 0.  1.
         -6    1    1    2    0  502  0.47853310100E+02 -0.56498223998E+02  0.31142216003E+02  0.19073758471E+03  0.17300000000E+03 0.  1.
<mgrwt>
<rscale>  2 0.18817808E+03</rscale>
<asrwt>0</asrwt>
<pdfrwt beam="1">  1       21 0.24752235E-01 0.18817808E+03</pdfrwt>
<pdfrwt beam="2">  1       21 0.39543258E-01 0.18817808E+03</pdfrwt>
<totfact> 0.95332225E+04</totfact>
</mgrwt>
</event>
<event>
 4    1  0.4441180E+000  0.2035910E+03  0.7546771E-02  0.1146744E+00
         21   -1    0    0  503  502  0.00000000000E+00  0.00000000000E+00  0.20938662838E+02  0.20938662838E+02  0.00000000000E+00 0. -1.
         21   -1    0    0  501  503 -0.00000000000E+00 -0.00000000000E+00 -0.19980022502E+04  0.19980022502E+04  0.00000000000E+00 0. -1.
          6    1    1    2  501    0 -0.89980065825E+02 -0.58513845541E+02 -0.89154007487E+03  0.91449056172E+03  0.17300000000E+03 0. -1.
         -6    1    1    2    0  502  0.89980065825E+02  0.58513845541E+02 -0.10855235125E+04  0.11044503514E+04  0.17300000000E+03 0. -1.
<mgrwt>
<rscale>  2 0.20359097E+03</rscale>
<asrwt>0</asrwt>
<pdfrwt beam="1">  1       21 0.32213324E-02 0.20359097E+03</pdfrwt>
<pdfrwt beam="2">  1       21 0.30738500E+00 0.20359097E+03</pdfrwt>
<totfact> 0.17212956E+04</totfact>
</mgrwt>
</event>
<event>
 4    1  0.4441180E+000  0.1790564E+03  0.7546771E-02  0.1168719E+00
         21   -1    0    0  501  502  0.00000000000E+00  0.00000000000E+00  0.12850535499E+04  0.12850535499E+04  0.00000000000E+00 0. -1.
         21   -1    0    0  502  503 -0.00000000000E+00 -0.00000000000E+00 -0.31320813718E+02  0.31320813718E+02  0.00000000000E+00 0. -1.
          6    1    1    2  501    0 -0.23024737105E+02  0.40025779685E+02  0.92372782508E+03  0.94092204586E+03  0.17300000000E+03 0. -1.
         -6    1    1    2    0  503  0.23024737105E+02 -0.40025779685E+02  0.33000491109E+03  0.37545231775E+03  0.17300000000E+03 0. -1.
<mgrwt>
<rscale>  2 0.17905642E+03</rscale>
<asrwt>0</asrwt>
<pdfrwt beam="1">  1       21 0.19770051E+00 0.17905642E+03</pdfrwt>
<pdfrwt beam="2">  1       21 0.48185877E-02 0.17905642E+03</pdfrwt>
<totfact> 0.40154588E+04</totfact>
</mgrwt>
</event>
<event>
 4    1  0.4441180E+000  0.1778902E+03  0.7546771E-02  0.1169861E+00
         21   -1    0    0  503  502  0.00000000000E+00  0.00000000000E+00  0.68275521388E+03  0.68275521388E+03  0.00000000000E+00 0.  1.
         21   -1    0    0  501  503 -0.00000000000E+00 -0.00000000000E+00 -0.70804087151E+02  0.70804087151E+02  0.00000000000E+00 0.  1.
          6    1    1    2  501    0 -0.39581797780E+02 -0.12215331416E+02  0.84541702843E+02  0.19695743844E+03  0.17300000000E+03 0.  1.
         -6    1    1    2    0  502  0.39581797780E+02  0.12215331416E+02  0.52740942388E+03  0.55660186259E+03  0.17300000000E+03 0.  1.
<mgrwt>
<rscale>  2 0.17789023E+03</rscale>
<asrwt>0</asrwt>
<pdfrwt beam="1">  1       21 0.10503926E+00 0.17789023E+03</pdfrwt>
<pdfrwt beam="2">  1       21 0.10892937E-01 0.17789023E+03</pdfrwt>
<totfact> 0.51283184E+04</totfact>
</mgrwt>
</event>
<event>
 4    1  0.4441180E+000  0.2072129E+03  0.7546771E-02  0.1143792E+00
         21   -1    0    0  503  502  0.00000000000E+00  0.00000000000E+00  0.42607144497E+02  0.42607144497E+02  0.00000000000E+00 0.  1.
         21   -1    0    0  501  503 -0.00000000000E+00 -0.00000000000E+00 -0.10085973959E+04  0.10085973959E+04  0.00000000000E+00 0.  1.
          6    1    1    2  501    0 -0.16061489205E+02  0.11291690177E+03 -0.49826206920E+03  0.53963162226E+03  0.17300000000E+03 0.  1.
         -6    1    1    2    0  502  0.16061489205E+02 -0.11291690177E+03 -0.46772818219E+03  0.51157291812E+03  0.17300000000E+03 0.  1.
<mgrwt>
<rscale>  2 0.20721293E+03</rscale>
<asrwt>0</asrwt>
<pdfrwt beam="1">  1       21 0.65549457E-02 0.20721293E+03</pdfrwt>
<pdfrwt beam="2">  1       21 0.15516882E+00 0.20721293E+03</pdfrwt>
<totfact> 0.45904509E+04</totfact>
</mgrwt>
</event>
<event>
 4    1  0.4441180E+000  0.1813423E+03  0.7546771E-02  0.1166510E+00
         21   -1    0    0  501  502  0.00000000000E+00  0.00000000000E+00  0.68359793946E+03  0.68359793946E+03  0.00000000000E+00 0.  1.
         21   -1    0    0  502  503 -0.00000000000E+00 -0.00000000000E+00 -0.92138643749E+02  0.92138643749E+02  0.00000000000E+00 0. -1.
          6    1    1    2  501    0  0.25035263021E+02  0.48262649725E+02  0.56386345711E+03  0.59230654734E+03  0.17300000000E+03 0.  1.
         -6    1    1    2    0  503 -0.25035263021E+02 -0.48262649725E+02  0.27595838602E+02  0.18343003588E+03  0.17300000000E+03 0. -1.
<mgrwt>
<rscale>  2 0.18134235E+03</rscale>
<asrwt>0</asrwt>
<pdfrwt beam="1">  1       21 0.10516891E+00 0.18134235E+03</pdfrwt>
<pdfrwt beam="2">  1       21 0.14175176E-01 0.18134235E+03</pdfrwt>
<totfact> 0.31841502E+04</totfact>
</mgrwt>
</event>
<event>
 4    1  0.4441180E+000  0.1820117E+03  0.7546771E-02  0.1165870E+00
         21   -1    0    0  501  502  0.00000000000E+00  0.00000000000E+00  0.38758728852E+03  0.38758728852E+03  0.00000000000E+00 0. -1.
         21   -1    0    0  502  503 -0.00000000000E+00 -0.00000000000E+00 -0.11419107754E+03  0.11419107754E+03  0.00000000000E+00 0. -1.
          6    1    1    2  501    0 -0.21258339698E+02  0.52415110613E+02  0.26251625386E+03  0.31944176992E+03  0.17300000000E+03 0. -1.
         -6    1    1    2    0  503  0.21258339698E+02 -0.52415110613E+02  0.10879957113E+02  0.18233659615E+03  0.17300000000E+03 0. -1.
<mgrwt>
<rscale>  2 0.18201171E+03</rscale>
<asrwt>0</asrwt>
<pdfrwt beam="1">  1       21 0.59628813E-01 0.18201171E+03</pdfrwt>
<pdfrwt beam="2">  1       21 0.17567858E-01 0.18201171E+03</pdfrwt>
<totfact> 0.77450603E+04</totfact>
</mgrwt>
</event>
<event>
 4    1  0.4441180E+000  0.2199637E+03  0.7546771E-02  0.1133910E+00
         21   -1    0    0  501  502  0.00000000000E+00  0.00000000000E+00  0.16778790817E+03  0.16778790817E+03  0.00000000000E+00 0. -1.
         21   -1    0    0  502  503 -0.00000000000E+00 -0.00000000000E+00 -0.59560504178E+03  0.59560504178E+03  0.00000000000E+00 0.  1.
          6    1    1    2  501    0  0.62983959082E+02 -0.12036629598E+03  0.60235244561E+02  0.22806207268E+03  0.17300000000E+03 0. -1.
         -6    1    1    2    0  503 -0.62983959082E+02  0.12036629598E+03 -0.48805237817E+03  0.53533087726E+03  0.17300000000E+03 0.  1.
<mgrwt>
<rscale>  2 0.21996369E+03</rscale>
<asrwt>0</asrwt>
<pdfrwt beam="1">  1       21 0.25813524E-01 0.21996369E+03</pdfrwt>
<pdfrwt beam="2">  1       21 0.91631545E-01 0.21996369E+03</pdfrwt>
<totfact> 0.14109300E+04</totfact>
</mgrwt>
</event>
<event>
 4    1  0.4441180E+000  0.1889360E+03  0.7546771E-02  0.1159424E+00
         21   -1    0    0  503  502  0.00000000000E+00  0.00000000000E+00  0.14993715986E+03  0.14993715986E+03  0.00000000000E+00 0. -1.
         21   -1    0    0  501  503 -0.00000000000E+00 -0.00000000000E+00 -0.24143448514E+03  0.24143448514E+03  0.00000000000E+00 0. -1.
          6    1    1    2  501    0 -0.83464888673E+00 -0.75941586724E+02 -0.22677650170E+02  0.19029213607E+03  0.17300000000E+03 0.  1.
         -6    1    1    2    0  502  0.83464888673E+00  0.75941586724E+02 -0.68819675110E+02  0.20107950894E+03  0.17300000000E+03 0.  1.
<mgrwt>
<rscale>  2 0.18893602E+03</rscale>
<asrwt>0</asrwt>
<pdfrwt beam="1">  1       21 0.23067256E-01 0.18893602E+03</pdfrwt>
<pdfrwt beam="2">  1       21 0.37143767E-01 0.18893602E+03</pdfrwt>
<totfact> 0.12354723E+05</totfact>
</mgrwt>
</event>
<event>
 4    1  0.4441180E+000  0.1922394E+03  0.7546771E-02  0.1156457E+00
         21   -1    0    0  503  502  0.00000000000E+00  0.00000000000E+00  0.39986078685E+03  0.39986078685E+03  0.00000000000E+00 0. -1.
         21   -1    0    0  501  503 -0.00000000000E+00 -0.00000000000E+00 -0.11587355268E+03  0.11587355268E+03  0.00000000000E+00 0.  1.
          6    1    1    2  501    0 -0.70861352773E+02  0.44784650163E+02  0.25985535629E+02  0.19398774257E+03  0.17300000000E+03 0. -1.
         -6    1    1    2    0  502  0.70861352773E+02 -0.44784650163E+02  0.25800169854E+03  0.32174659696E+03  0.17300000000E+03 0. -1.
<mgrwt>
<rscale>  2 0.19223942E+03</rscale>
<asrwt>0</asrwt>
<pdfrwt beam="1">  1       21 0.61517044E-01 0.19223942E+03</pdfrwt>
<pdfrwt beam="2">  1       21 0.17826701E-01 0.19223942E+03</pdfrwt>
<totfact> 0.70204366E+04</totfact>
</mgrwt>
</event>
<event>
 4    1  0.4441180E+000  0.2743308E+03  0.7546771E-02  0.1098826E+00
         21   -1    0    0  503  502  0.00000000000E+00  0.00000000000E+00  0.82807976564E+02  0.82807976564E+02  0.00000000000E+00 0. -1.
         21   -1    0    0  501  503 -0.00000000000E+00 -0.00000000000E+00 -0.91035899523E+03  0.91035899523E+03  0.00000000000E+00 0.  1.
          6    1    1    2  501    0 -0.20987756495E+03 -0.35774447526E+02 -0.43420446687E+03  0.51360580450E+03  0.17300000000E+03 0. -1.
         -6    1    1    2    0  502  0.20987756495E+03  0.35774447526E+02 -0.39334655179E+03  0.47956116729E+03  0.17300000000E+03 0.  1.
<mgrwt>
<rscale>  2 0.27433083E+03</rscale>
<asrwt>0</asrwt>
<pdfrwt beam="1">  1       21 0.12739689E-01 0.27433083E+03</pdfrwt>
<pdfrwt beam="2">  1       21 0.14005522E+00 0.27433083E+03</pdfrwt>
<totfact> 0.17970552E+04</totfact>
</mgrwt>
</event>
<event>
 4    1  0.4441180E+000  0.2580108E+03  0.7546771E-02  0.1108344E+00
         21   -1    0    0  501  502  0.00000000000E+00  0.00000000000E+00  0.80245983748E+02  0.80245983748E+02  0.00000000000E+00 0. -1.
         21   -1    0    0  502  503 -0.00000000000E+00 -0.00000000000E+00 -0.83767414574E+03  0.83767414574E+03  0.00000000000E+00 0.  1.
          6    1    1    2  501    0  0.10634657148E+03  0.15915711171E+03 -0.42385995826E+03  0.49621249852E+03  0.17300000000E+03 0.  1.
         -6    1    1    2    0  503 -0.10634657148E+03 -0.15915711171E+03 -0.33356820373E+03  0.42170763096E+03  0.17300000000E+03 0.  1.
<mgrwt>
<rscale>  2 0.25801081E+03</rscale>
<asrwt>0</asrwt>
<pdfrwt beam="1">  1       21 0.12345536E-01 0.25801081E+03</pdfrwt>
<pdfrwt beam="2">  1       21 0.12887294E+00 0.25801081E+03</pdfrwt>
<totfact> 0.23757535E+04</totfact>
</mgrwt>
</event>
<event>
 4    1  0.4441180E+000  0.1823748E+03  0.7546771E-02  0.1165524E+00
         21   -1    0    0  501  502  0.00000000000E+00  0.00000000000E+00  0.12333977116E+03  0.12333977116E+03  0.00000000000E+00 0.  1.
         21   -1    0    0  502  503 -0.00000000000E+00 -0.00000000000E+00 -0.16852143863E+04  0.16852143863E+04  0.00000000000E+00 0.  1.
          6    1    1    2  501    0 -0.11905334119E+02 -0.56478626925E+02  0.47836975532E+02  0.18854428792E+03  0.17300000000E+03 0.  1.
         -6    1    1    2    0  503  0.11905334119E+02  0.56478626925E+02 -0.16097115906E+04  0.16200098695E+04  0.17300000000E+03 0.  1.
<mgrwt>
<rscale>  2 0.18237481E+03</rscale>
<asrwt>0</asrwt>
<pdfrwt beam="1">  1       21 0.18975350E-01 0.18237481E+03</pdfrwt>
<pdfrwt beam="2">  1       21 0.25926374E+00 0.18237481E+03</pdfrwt>
<totfact> 0.15132944E+03</totfact>
</mgrwt>
</event>
<event>
 4    1  0.4441180E+000  0.1821869E+03  0.7546771E-02  0.1165703E+00
         21   -1    0    0  501  502  0.00000000000E+00  0.00000000000E+00  0.15609509739E+04  0.15609509739E+04  0.00000000000E+00 0. -1.
         21   -1    0    0  502  503 -0.00000000000E+00 -0.00000000000E+00 -0.28708265326E+02  0.28708265326E+02  0.00000000000E+00 0.  1.
          6    1    1    2  501    0 -0.34252887971E+02  0.45714309070E+02  0.11708664054E+04  0.11849557788E+04  0.17300000000E+03 0. -1.
         -6    1    1    2    0  503  0.34252887971E+02 -0.45714309070E+02  0.36137630309E+03  0.40470346035E+03  0.17300000000E+03 0.  1.
<mgrwt>
<rscale>  2 0.18218688E+03</rscale>
<asrwt>0</asrwt>
<pdfrwt beam="1">  1       21 0.24014624E+00 0.18218688E+03</pdfrwt>
<pdfrwt beam="2">  1       21 0.44166574E-02 0.18218688E+03</pdfrwt>
<totfact> 0.25445704E+04</totfact>
</mgrwt>
</event>
<event>
 4    1  0.4441180E+000  0.2175611E+03  0.7546771E-02  0.1135715E+00
         21   -1    0    0  503  502  0.00000000000E+00  0.00000000000E+00  0.13286764095E+04  0.13286764095E+04  0.00000000000E+00 0. -1.
         21   -1    0    0  501  503 -0.00000000000E+00 -0.00000000000E+00 -0.12856637760E+03  0.12856637760E+03  0.00000000000E+00 0.  1.
          6    1    1    2  501    0 -0.38178194347E+02 -0.12627849575E+03 -0.19450232903E+02  0.21842880893E+03  0.17300000000E+03 0.  1.
         -6    1    1    2    0  502  0.38178194347E+02  0.12627849575E+03  0.12195602648E+04  0.12388139781E+04  0.17300000000E+03 0. -1.
<mgrwt>
<rscale>  2 0.21756110E+03</rscale>
<asrwt>0</asrwt>
<pdfrwt beam="1">  1       21 0.20441175E+00 0.21756110E+03</pdfrwt>
<pdfrwt beam="2">  1       21 0.19779444E-01 0.21756110E+03</pdfrwt>
<totfact> 0.28953274E+03</totfact>
</mgrwt>
</event>
<event>
 4    1  0.4441180E+000  0.2208846E+03  0.7546771E-02  0.1133225E+00
         21   -1    0    0  501  502  0.00000000000E+00  0.00000000000E+00  0.38685391240E+03  0.38685391240E+03  0.00000000000E+00 0. -1.
         21   -1    0    0  502  503 -0.00000000000E+00 -0.00000000000E+00 -0.18454604573E+03  0.18454604573E+03  0.00000000000E+00 0. -1.
          6    1    1    2  501    0  0.12455682778E+03  0.57849742129E+02  0.26190774165E+03  0.34261590907E+03  0.17300000000E+03 0. -1.
         -6    1    1    2    0  503 -0.12455682778E+03 -0.57849742129E+02 -0.59599874980E+02  0.22878404907E+03  0.17300000000E+03 0. -1.
<mgrwt>
<rscale>  2 0.22088458E+03</rscale>
<asrwt>0</asrwt>
<pdfrwt beam="1">  1       21 0.59515986E-01 0.22088458E+03</pdfrwt>
<pdfrwt beam="2">  1       21 0.28391699E-01 0.22088458E+03</pdfrwt>
<totfact> 0.30805106E+04</totfact>
</mgrwt>
</event>
<event>
 4    1  0.4441180E+000  0.2868600E+03  0.7546771E-02  0.1092000E+00
         21   -1    0    0  503  502  0.00000000000E+00  0.00000000000E+00  0.15769900994E+03  0.15769900994E+03  0.00000000000E+00 0. -1.
         21   -1    0    0  501  503 -0.00000000000E+00 -0.00000000000E+00 -0.52247422005E+03  0.52247422005E+03  0.00000000000E+00 0.  1.
          6    1    1    2  501    0 -0.65271974399E+02  0.21931530471E+03 -0.19453007247E+03  0.34659859004E+03  0.17300000000E+03 0. -1.
         -6    1    1    2    0  502  0.65271974399E+02 -0.21931530471E+03 -0.17024513764E+03  0.33357463994E+03  0.17300000000E+03 0.  1.
<mgrwt>
<rscale>  2 0.28685995E+03</rscale>
<asrwt>0</asrwt>
<pdfrwt beam="1">  1       21 0.24261386E-01 0.28685995E+03</pdfrwt>
<pdfrwt beam="2">  1       21 0.80380649E-01 0.28685995E+03</pdfrwt>
<totfact> 0.20800559E+04</totfact>
</mgrwt>
</event>
<event>
 4    1  0.4441180E+000  0.2924327E+03  0.7546771E-02  0.1089086E+00
         21   -1    0    0  503  502  0.00000000000E+00  0.00000000000E+00  0.41002042731E+03  0.41002042731E+03  0.00000000000E+00 0.  1.
         21   -1    0    0  501  503 -0.00000000000E+00 -0.00000000000E+00 -0.21305888996E+03  0.21305888996E+03  0.00000000000E+00 0. -1.
          6    1    1    2  501    0  0.21319773272E+01 -0.23576119586E+03  0.14371421006E+03  0.32583839702E+03  0.17300000000E+03 0.  1.
         -6    1    1    2    0  502 -0.21319773272E+01  0.23576119586E+03  0.53247327294E+02  0.29724092024E+03  0.17300000000E+03 0.  1.
<mgrwt>
<rscale>  2 0.29243270E+03</rscale>
<asrwt>0</asrwt>
<pdfrwt beam="1">  1       21 0.63080065E-01 0.29243270E+03</pdfrwt>
<pdfrwt beam="2">  1       21 0.32778291E-01 0.29243270E+03</pdfrwt>
<totfact> 0.19819237E+04</totfact>
</mgrwt>
</event>
<event>
 4    1  0.4441180E+000  0.1987673E+03  0.7546771E-02  0.1150783E+00
         21   -1    0    0  503  502  0.00000000000E+00  0.00000000000E+00  0.36083037574E+03  0.36083037574E+03  0.00000000000E+00 0.  1.
         21   -1    0    0  501  503 -0.00000000000E+00 -0.00000000000E+00 -0.16391428824E+03  0.16391428824E+03  0.00000000000E+00 0.  1.
          6    1    1    2  501    0 -0.97545293594E+02 -0.80220967796E+01 -0.52721704556E+02  0.20564050299E+03  0.17300000000E+03 0.  1.
         -6    1    1    2    0  502  0.97545293594E+02  0.80220967796E+01  0.24963779206E+03  0.31910416099E+03  0.17300000000E+03 0.  1.
<mgrwt>
<rscale>  2 0.19876730E+03</rscale>
<asrwt>0</asrwt>
<pdfrwt beam="1">  1       21 0.55512365E-01 0.19876730E+03</pdfrwt>
<pdfrwt beam="2">  1       21 0.25217583E-01 0.19876730E+03</pdfrwt>
<totfact> 0.45427151E+04</totfact>
</mgrwt>
</event>
<event>
 4    1  0.4441180E+000  0.1782159E+03  0.7546771E-02  0.1169541E+00
         21   -1    0    0  503  502  0.00000000000E+00  0.00000000000E+00  0.10936345322E+04  0.10936345322E+04  0.00000000000E+00 0. -1.
         21   -1    0    0  501  503 -0.00000000000E+00 -0.00000000000E+00 -0.31196883101E+02  0.31196883101E+02  0.00000000000E+00 0. -1.
          6    1    1    2  501    0 -0.26543783453E+02 -0.33575681893E+02  0.38339181358E+03  0.42278857786E+03  0.17300000000E+03 0.  1.
         -6    1    1    2    0  502  0.26543783453E+02  0.33575681893E+02  0.67904583551E+03  0.70204283742E+03  0.17300000000E+03 0.  1.
<mgrwt>
<rscale>  2 0.17821588E+03</rscale>
<asrwt>0</asrwt>
<pdfrwt beam="1">  1       21 0.16825144E+00 0.17821588E+03</pdfrwt>
<pdfrwt beam="2">  1       21 0.47995213E-02 0.17821588E+03</pdfrwt>
<totfact> 0.63807796E+04</totfact>
</mgrwt>
</event>
<event>
 4    1  0.4441180E+000  0.3595282E+03  0.7546771E-02  0.1058771E+00
         21   -1    0    0  501  502  0.00000000000E+00  0.00000000000E+00  0.56058629335E+03  0.56058629335E+03  0.00000000000E+00 0. -1.
         21   -1    0    0  502  503 -0.00000000000E+00 -0.00000000000E+00 -0.26966597081E+03  0.26966597081E+03  0.00000000000E+00 0. -1.
          6    1    1    2  501    0  0.30364668643E+03 -0.84440600656E+02  0.30350201778E+03  0.47050398512E+03  0.17300000000E+03 0. -1.
         -6    1    1    2    0  503 -0.30364668643E+03  0.84440600656E+02 -0.12581695242E+02  0.35974827904E+03  0.17300000000E+03 0. -1.
<mgrwt>
<rscale>  2 0.35952820E+03</rscale>
<asrwt>0</asrwt>
<pdfrwt beam="1">  1       21 0.86244045E-01 0.35952820E+03</pdfrwt>
<pdfrwt beam="2">  1       21 0.41487072E-01 0.35952820E+03</pdfrwt>
<totfact> 0.59073297E+03</totfact>
</mgrwt>
</event>
<event>
 4    1  0.4441180E+000  0.1831664E+03  0.7546771E-02  0.1164773E+00
         21   -1    0    0  503  502  0.00000000000E+00  0.00000000000E+00  0.14921407069E+03  0.14921407069E+03  0.00000000000E+00 0.  1.
         21   -1    0    0  501  503 -0.00000000000E+00 -0.00000000000E+00 -0.23502485339E+03  0.23502485339E+03  0.00000000000E+00 0.  1.
          6    1    1    2  501    0 -0.57486686896E+02  0.17782086385E+02 -0.82890824461E+02  0.20104927393E+03  0.17300000000E+03 0.  1.
         -6    1    1    2    0  502  0.57486686896E+02 -0.17782086385E+02 -0.29199582320E+01  0.18318965015E+03  0.17300000000E+03 0.  1.
<mgrwt>
<rscale>  2 0.18316638E+03</rscale>
<asrwt>0</asrwt>
<pdfrwt beam="1">  1       21 0.22956011E-01 0.18316638E+03</pdfrwt>
<pdfrwt beam="2">  1       21 0.36157670E-01 0.18316638E+03</pdfrwt>
<totfact> 0.13181291E+05</totfact>
</mgrwt>
</event>
<event>
 4    1  0.4441180E+000  0.2282677E+03  0.7546771E-02  0.1127865E+00
         21   -1    0    0  501  502  0.00000000000E+00  0.00000000000E+00  0.72340684538E+03  0.72340684538E+03  0.00000000000E+00 0.  1.
         21   -1    0    0  502  503 -0.00000000000E+00 -0.00000000000E+00 -0.73015859967E+02  0.73015859967E+02  0.00000000000E+00 0.  1.
          6    1    1    2  501    0 -0.13320936089E+03  0.66576294381E+02  0.27889625739E+03  0.36040152495E+03  0.17300000000E+03 0.  1.
         -6    1    1    2    0  503  0.13320936089E+03 -0.66576294381E+02  0.37149472802E+03  0.43602118039E+03  0.17300000000E+03 0.  1.
<mgrwt>
<rscale>  2 0.22826769E+03</rscale>
<asrwt>0</asrwt>
<pdfrwt beam="1">  1       21 0.11129336E+00 0.22826769E+03</pdfrwt>
<pdfrwt beam="2">  1       21 0.11233210E-01 0.22826769E+03</pdfrwt>
<totfact> 0.41144580E+04</totfact>
</mgrwt>
</event>
<event>
 4    1  0.4441180E+000  0.1799134E+03  0.7546771E-02  0.1167887E+00
         21   -1    0    0  501  502  0.00000000000E+00  0.00000000000E+00  0.14315343434E+03  0.14315343434E+03  0.00000000000E+00 0.  1.
         21   -1    0    0  502  503 -0.00000000000E+00 -0.00000000000E+00 -0.36302707709E+03  0.36302707709E+03  0.00000000000E+00 0.  1.
          6    1    1    2  501    0 -0.34654910229E+02 -0.35197786408E+02  0.45491453956E+02  0.18557564321E+03  0.17300000000E+03 0.  1.
         -6    1    1    2    0  503  0.34654910229E+02  0.35197786408E+02 -0.26536509671E+03  0.32060486822E+03  0.17300000000E+03 0.  1.
<mgrwt>
<rscale>  2 0.17991344E+03</rscale>
<asrwt>0</asrwt>
<pdfrwt beam="1">  1       21 0.22023605E-01 0.17991344E+03</pdfrwt>
<pdfrwt beam="2">  1       21 0.55850320E-01 0.17991344E+03</pdfrwt>
<totfact> 0.58502938E+04</totfact>
</mgrwt>
</event>
<event>
 4    1  0.4441180E+000  0.2505360E+03  0.7546771E-02  0.1112967E+00
         21   -1    0    0  503  502  0.00000000000E+00  0.00000000000E+00  0.57329994621E+02  0.57329994621E+02  0.00000000000E+00 0. -1.
         21   -1    0    0  501  503 -0.00000000000E+00 -0.00000000000E+00 -0.15144917728E+04  0.15144917728E+04  0.00000000000E+00 0.  1.
          6    1    1    2  501    0  0.13230800558E+03 -0.12382994591E+03 -0.11422704041E+04  0.11694229090E+04  0.17300000000E+03 0. -1.
         -6    1    1    2    0  502 -0.13230800558E+03  0.12382994591E+03 -0.31489137407E+03  0.40239885848E+03  0.17300000000E+03 0.  1.
<mgrwt>
<rscale>  2 0.25053595E+03</rscale>
<asrwt>0</asrwt>
<pdfrwt beam="1">  1       21 0.88199991E-02 0.25053595E+03</pdfrwt>
<pdfrwt beam="2">  1       21 0.23299874E+00 0.25053595E+03</pdfrwt>
<totfact> 0.80884229E+03</totfact>
</mgrwt>
</event>
<event>
 4    1  0.4441180E+000  0.2016249E+03  0.7546771E-02  0.1148375E+00
         21   -1    0    0  501  502  0.00000000000E+00  0.00000000000E+00  0.60706357806E+02  0.60706357806E+02  0.00000000000E+00 0.  1.
         21   -1    0    0  502  503 -0.00000000000E+00 -0.00000000000E+00 -0.16605487770E+04  0.16605487770E+04  0.00000000000E+00 0.  1.
          6    1    1    2  501    0 -0.94075212922E+01  0.10312661740E+03 -0.13510445242E+03  0.24270519924E+03  0.17300000000E+03 0.  1.
         -6    1    1    2    0  503  0.94075212922E+01 -0.10312661740E+03 -0.14647379668E+04  0.14785499356E+04  0.17300000000E+03 0.  1.
<mgrwt>
<rscale>  2 0.20162490E+03</rscale>
<asrwt>0</asrwt>
<pdfrwt beam="1">  1       21 0.93394425E-02 0.20162490E+03</pdfrwt>
<pdfrwt beam="2">  1       21 0.25546897E+00 0.20162490E+03</pdfrwt>
<totfact> 0.56012559E+03</totfact>
</mgrwt>
</event>
<event>
 4    1  0.4441180E+000  0.2200931E+03  0.7546771E-02  0.1133814E+00
         21   -1    0    0  501  502  0.00000000000E+00  0.00000000000E+00  0.28359789866E+03  0.28359789866E+03  0.00000000000E+00 0. -1.
         21   -1    0    0  502  503 -0.00000000000E+00 -0.00000000000E+00 -0.18229347357E+03  0.18229347357E+03  0.00000000000E+00 0. -1.
          6    1    1    2  501    0  0.79942380223E+02  0.11009627769E+03  0.10912196507E+03  0.24565947525E+03  0.17300000000E+03 0. -1.
         -6    1    1    2    0  503 -0.79942380223E+02 -0.11009627769E+03 -0.78175399853E+01  0.22023189698E+03  0.17300000000E+03 0. -1.
<mgrwt>
<rscale>  2 0.22009310E+03</rscale>
<asrwt>0</asrwt>
<pdfrwt beam="1">  1       21 0.43630446E-01 0.22009310E+03</pdfrwt>
<pdfrwt beam="2">  1       21 0.28045150E-01 0.22009310E+03</pdfrwt>
<totfact> 0.60562883E+04</totfact>
</mgrwt>
</event>
<event>
 4    1  0.4441180E+000  0.1818736E+03  0.7546771E-02  0.1166002E+00
         21   -1    0    0  503  502  0.00000000000E+00  0.00000000000E+00  0.38418143897E+03  0.38418143897E+03  0.00000000000E+00 0. -1.
         21   -1    0    0  501  503 -0.00000000000E+00 -0.00000000000E+00 -0.97051252963E+02  0.97051252963E+02  0.00000000000E+00 0.  1.
          6    1    1    2  501    0  0.30032347097E+02 -0.47403237347E+02  0.62737967112E+02  0.19239038775E+03  0.17300000000E+03 0. -1.
         -6    1    1    2    0  502 -0.30032347097E+02  0.47403237347E+02  0.22439221890E+03  0.28884230418E+03  0.17300000000E+03 0. -1.
<mgrwt>
<rscale>  2 0.18187361E+03</rscale>
<asrwt>0</asrwt>
<pdfrwt beam="1">  1       21 0.59104836E-01 0.18187361E+03</pdfrwt>
<pdfrwt beam="2">  1       21 0.14930962E-01 0.18187361E+03</pdfrwt>
<totfact> 0.10629098E+05</totfact>
</mgrwt>
</event>
<event>
 4    1  0.4441180E+000  0.1807630E+03  0.7546771E-02  0.1167067E+00
         21   -1    0    0  503  502  0.00000000000E+00  0.00000000000E+00  0.14695715632E+03  0.14695715632E+03  0.00000000000E+00 0.  1.
         21   -1    0    0  501  503 -0.00000000000E+00 -0.00000000000E+00 -0.22466274340E+03  0.22466274340E+03  0.00000000000E+00 0.  1.
          6    1    1    2  501    0 -0.14220697835E+02 -0.50438519796E+02 -0.19982319593E+02  0.18186414056E+03  0.17300000000E+03 0.  1.
         -6    1    1    2    0  502  0.14220697835E+02  0.50438519796E+02 -0.57723267488E+02  0.18975575916E+03  0.17300000000E+03 0.  1.
<mgrwt>
<rscale>  2 0.18076303E+03</rscale>
<asrwt>0</asrwt>
<pdfrwt beam="1">  1       21 0.22608793E-01 0.18076303E+03</pdfrwt>
<pdfrwt beam="2">  1       21 0.34563499E-01 0.18076303E+03</pdfrwt>
<totfact> 0.14847979E+05</totfact>
</mgrwt>
</event>
<event>
 4    1  0.4441180E+000  0.2693666E+03  0.7546771E-02  0.1101643E+00
         21   -1    0    0  501  502  0.00000000000E+00  0.00000000000E+00  0.23770703507E+04  0.23770703507E+04  0.00000000000E+00 0.  1.
         21   -1    0    0  502  503 -0.00000000000E+00 -0.00000000000E+00 -0.88983054376E+02  0.88983054376E+02  0.00000000000E+00 0. -1.
          6    1    1    2  501    0  0.15236995590E+03  0.13932970547E+03  0.21434535908E+04  0.21603128630E+04  0.17300000000E+03 0.  1.
         -6    1    1    2    0  503 -0.15236995590E+03 -0.13932970547E+03  0.14463370558E+03  0.30574054209E+03  0.17300000000E+03 0. -1.
<mgrwt>
<rscale>  2 0.26936661E+03</rscale>
<asrwt>0</asrwt>
<pdfrwt beam="1">  1       21 0.36570308E+00 0.26936661E+03</pdfrwt>
<pdfrwt beam="2">  1       21 0.13689702E-01 0.26936661E+03</pdfrwt>
<totfact> 0.59103921E+02</totfact>
</mgrwt>
</event>
<event>
 4    1  0.4441180E+000  0.1900917E+03  0.7546771E-02  0.1158379E+00
         21   -1    0    0  503  502  0.00000000000E+00  0.00000000000E+00  0.22717348087E+04  0.22717348087E+04  0.00000000000E+00 0. -1.
         21   -1    0    0  501  503 -0.00000000000E+00 -0.00000000000E+00 -0.26137750723E+02  0.26137750723E+02  0.00000000000E+00 0. -1.
          6    1    1    2  501    0 -0.77903970962E+01  0.78391112561E+02  0.40396089475E+03  0.44645185777E+03  0.17300000000E+03 0. -1.
         -6    1    1    2    0  502  0.77903970962E+01 -0.78391112561E+02  0.18416361632E+04  0.18514207016E+04  0.17300000000E+03 0. -1.
<mgrwt>
<rscale>  2 0.19009171E+03</rscale>
<asrwt>0</asrwt>
<pdfrwt beam="1">  1       21 0.34949751E+00 0.19009171E+03</pdfrwt>
<pdfrwt beam="2">  1       21 0.40211942E-02 0.19009171E+03</pdfrwt>
<totfact> 0.68600646E+03</totfact>
</mgrwt>
</event>
<event>
 4    1  0.4441180E+000  0.2116841E+03  0.7546771E-02  0.1140239E+00
         21   -1    0    0  501  502  0.00000000000E+00  0.00000000000E+00  0.31333787476E+02  0.31333787476E+02  0.00000000000E+00 0. -1.
         21   -1    0    0  502  503 -0.00000000000E+00 -0.00000000000E+00 -0.14310124344E+04  0.14310124344E+04  0.00000000000E+00 0.  1.
          6    1    1    2  501    0 -0.92151731745E+02  0.79932600839E+02 -0.68128396874E+03  0.71341292980E+03  0.17300000000E+03 0. -1.
         -6    1    1    2    0  503  0.92151731745E+02 -0.79932600839E+02 -0.71839467818E+03  0.74893329208E+03  0.17300000000E+03 0.  1.
<mgrwt>
<rscale>  2 0.21168411E+03</rscale>
<asrwt>0</asrwt>
<pdfrwt beam="1">  1       21 0.48205829E-02 0.21168411E+03</pdfrwt>
<pdfrwt beam="2">  1       21 0.22015575E+00 0.21168411E+03</pdfrwt>
<totfact> 0.28318989E+04</totfact>
</mgrwt>
</event>
<event>
 4    1  0.4441180E+000  0.2026129E+03  0.7546771E-02  0.1147553E+00
         21   -1    0    0  501  502  0.00000000000E+00  0.00000000000E+00  0.28440278955E+02  0.28440278955E+02  0.00000000000E+00 0.  1.
         21   -1    0    0  502  503 -0.00000000000E+00 -0.00000000000E+00 -0.14915954941E+04  0.14915954941E+04  0.00000000000E+00 0.  1.
          6    1    1    2  501    0  0.88985441394E+02  0.56609099806E+02 -0.59502644422E+03  0.62857654131E+03  0.17300000000E+03 0.  1.
         -6    1    1    2    0  503 -0.88985441394E+02 -0.56609099806E+02 -0.86812877091E+03  0.89145923173E+03  0.17300000000E+03 0.  1.
<mgrwt>
<rscale>  2 0.20261293E+03</rscale>
<asrwt>0</asrwt>
<pdfrwt beam="1">  1       21 0.43754269E-02 0.20261293E+03</pdfrwt>
<pdfrwt beam="2">  1       21 0.22947626E+00 0.20261293E+03</pdfrwt>
<totfact> 0.29461409E+04</totfact>
</mgrwt>
</event>
<event>
 4    1  0.4441180E+000  0.1846296E+03  0.7546771E-02  0.1163396E+00
         21   -1    0    0  503  502  0.00000000000E+00  0.00000000000E+00  0.11661140134E+03  0.11661140134E+03  0.00000000000E+00 0. -1.
         21   -1    0    0  501  503 -0.00000000000E+00 -0.00000000000E+00 -0.32880731203E+03  0.32880731203E+03  0.00000000000E+00 0. -1.
          6    1    1    2  501    0 -0.19558541053E+01  0.64461276446E+02 -0.18028474631E+03  0.25805168335E+03  0.17300000000E+03 0. -1.
         -6    1    1    2    0  502  0.19558541053E+01 -0.64461276446E+02 -0.31911164381E+02  0.18736703002E+03  0.17300000000E+03 0. -1.
<mgrwt>
<rscale>  2 0.18462958E+03</rscale>
<asrwt>0</asrwt>
<pdfrwt beam="1">  1       21 0.17940216E-01 0.18462958E+03</pdfrwt>
<pdfrwt beam="2">  1       21 0.50585739E-01 0.18462958E+03</pdfrwt>
<totfact> 0.10536826E+05</totfact>
</mgrwt>
</event>
<event>
 4    1  0.4441180E+000  0.3556906E+03  0.7546771E-02  0.1060303E+00
         21   -1    0    0  503  502  0.00000000000E+00  0.00000000000E+00  0.75069849736E+03  0.75069849736E+03  0.00000000000E+00 0.  1.
         21   -1    0    0  501  503 -0.00000000000E+00 -0.00000000000E+00 -0.16893127769E+03  0.16893127769E+03  0.00000000000E+00 0. -1.
          6    1    1    2  501    0  0.23584734907E+03  0.20239279389E+03  0.31327182627E+03  0.47397790266E+03  0.17300000000E+03 0.  1.
         -6    1    1    2    0  502 -0.23584734907E+03 -0.20239279389E+03  0.26849539341E+03  0.44565187239E+03  0.17300000000E+03 0. -1.
<mgrwt>
<rscale>  2 0.35569062E+03</rscale>
<asrwt>0</asrwt>
<pdfrwt beam="1">  1       21 0.11549207E+00 0.35569062E+03</pdfrwt>
<pdfrwt beam="2">  1       21 0.25989428E-01 0.35569062E+03</pdfrwt>
<totfact> 0.74518742E+03</totfact>
</mgrwt>
</event>
<event>
 4    1  0.4441180E+000  0.2041102E+03  0.7546771E-02  0.1146317E+00
         21   -1    0    0  501  502  0.00000000000E+00  0.00000000000E+00  0.20929649917E+02  0.20929649917E+02  0.00000000000E+00 0.  1.
         21   -1    0    0  502  503 -0.00000000000E+00 -0.00000000000E+00 -0.24401212172E+04  0.24401212172E+04  0.00000000000E+00 0.  1.
          6    1    1    2  501    0  0.89448360217E+02 -0.61081768887E+02 -0.68139844001E+03  0.71131204523E+03  0.17300000000E+03 0.  1.
         -6    1    1    2    0  503 -0.89448360217E+02  0.61081768887E+02 -0.17377931273E+04  0.17497388219E+04  0.17300000000E+03 0.  1.
<mgrwt>
<rscale>  2 0.20411024E+03</rscale>
<asrwt>0</asrwt>
<pdfrwt beam="1">  1       21 0.32199481E-02 0.20411024E+03</pdfrwt>
<pdfrwt beam="2">  1       21 0.37540304E+00 0.20411024E+03</pdfrwt>
<totfact> 0.68403484E+03</totfact>
</mgrwt>
</event>
<event>
 4    1  0.4441180E+000  0.1759460E+03  0.7546771E-02  0.1171785E+00
         21   -1    0    0  503  502  0.00000000000E+00  0.00000000000E+00  0.22703424316E+03  0.22703424316E+03  0.00000000000E+00 0. -1.
         21   -1    0    0  501  503 -0.00000000000E+00 -0.00000000000E+00 -0.16961601200E+03  0.16961601200E+03  0.00000000000E+00 0. -1.
          6    1    1    2  501    0  0.24364941927E+02  0.20841030362E+02 -0.59116133199E+02  0.18561173494E+03  0.17300000000E+03 0. -1.
         -6    1    1    2    0  502 -0.24364941927E+02 -0.20841030362E+02  0.11653436436E+03  0.21103852022E+03  0.17300000000E+03 0. -1.
<mgrwt>
<rscale>  2 0.17594601E+03</rscale>
<asrwt>0</asrwt>
<pdfrwt beam="1">  1       21 0.34928345E-01 0.17594601E+03</pdfrwt>
<pdfrwt beam="2">  1       21 0.26094771E-01 0.17594601E+03</pdfrwt>
<totfact> 0.11093166E+05</totfact>
</mgrwt>
</event>
<event>
 4    1  0.4441180E+000  0.2089477E+03  0.7546771E-02  0.1142402E+00
         21   -1    0    0  501  502  0.00000000000E+00  0.00000000000E+00  0.78029895878E+02  0.78029895878E+02  0.00000000000E+00 0. -1.
         21   -1    0    0  502  503 -0.00000000000E+00 -0.00000000000E+00 -0.59412747709E+03  0.59412747709E+03  0.00000000000E+00 0.  1.
          6    1    1    2  501    0  0.48049484184E+02  0.10687093552E+03 -0.17693453578E+03  0.27379733333E+03  0.17300000000E+03 0. -1.
         -6    1    1    2    0  503 -0.48049484184E+02 -0.10687093552E+03 -0.33916304543E+03  0.39836003963E+03  0.17300000000E+03 0.  1.
<mgrwt>
<rscale>  2 0.20894772E+03</rscale>
<asrwt>0</asrwt>
<pdfrwt beam="1">  1       21 0.12004599E-01 0.20894772E+03</pdfrwt>
<pdfrwt beam="2">  1       21 0.91404228E-01 0.20894772E+03</pdfrwt>
<totfact> 0.58969468E+04</totfact>
</mgrwt>
</event>
<event>
 4    1  0.4441180E+000  0.1912143E+03  0.7546771E-02  0.1157371E+00
         21   -1    0    0  503  502  0.00000000000E+00  0.00000000000E+00  0.99964589006E+03  0.99964589006E+03  0.00000000000E+00 0.  1.
         21   -1    0    0  501  503 -0.00000000000E+00 -0.00000000000E+00 -0.53168822810E+02  0.53168822810E+02  0.00000000000E+00 0.  1.
          6    1    1    2  501    0  0.63296475637E+02  0.51258956582E+02  0.17916551236E+03  0.26203664873E+03  0.17300000000E+03 0.  1.
         -6    1    1    2    0  502 -0.63296475637E+02 -0.51258956582E+02  0.76731155489E+03  0.79077806414E+03  0.17300000000E+03 0.  1.
<mgrwt>
<rscale>  2 0.19121434E+03</rscale>
<asrwt>0</asrwt>
<pdfrwt beam="1">  1       21 0.15379166E+00 0.19121434E+03</pdfrwt>
<pdfrwt beam="2">  1       21 0.81798197E-02 0.19121434E+03</pdfrwt>
<totfact> 0.32334110E+04</totfact>
</mgrwt>
</event>
<event>
 4    1  0.4441180E+000  0.1810784E+03  0.7546771E-02  0.1166763E+00
         21   -1    0    0  501  502  0.00000000000E+00  0.00000000000E+00  0.55102268768E+03  0.55102268768E+03  0.00000000000E+00 0.  1.
         21   -1    0    0  502  503 -0.00000000000E+00 -0.00000000000E+00 -0.60594364557E+02  0.60594364557E+02  0.00000000000E+00 0.  1.
          6    1    1    2  501    0  0.52374347751E+02 -0.10831117349E+02  0.28619092062E+03  0.33866595408E+03  0.17300000000E+03 0.  1.
         -6    1    1    2    0  503 -0.52374347751E+02  0.10831117349E+02  0.20423740250E+03  0.27295109816E+03  0.17300000000E+03 0.  1.
<mgrwt>
<rscale>  2 0.18107840E+03</rscale>
<asrwt>0</asrwt>
<pdfrwt beam="1">  1       21 0.84772718E-01 0.18107840E+03</pdfrwt>
<pdfrwt beam="2">  1       21 0.93222103E-02 0.18107840E+03</pdfrwt>
<totfact> 0.11120432E+05</totfact>
</mgrwt>
</event>
<event>
 4    1  0.4441180E+000  0.1984124E+03  0.7546771E-02  0.1151085E+00
         21   -1    0    0  501  502  0.00000000000E+00  0.00000000000E+00  0.31398787548E+03  0.31398787548E+03  0.00000000000E+00 0.  1.
         21   -1    0    0  502  503 -0.00000000000E+00 -0.00000000000E+00 -0.16236192309E+03  0.16236192309E+03  0.00000000000E+00 0.  1.
          6    1    1    2  501    0  0.94444041271E+02 -0.22777304483E+02  0.18948525749E+03  0.27435769597E+03  0.17300000000E+03 0.  1.
         -6    1    1    2    0  503 -0.94444041271E+02  0.22777304483E+02 -0.37859305108E+02  0.20199210260E+03  0.17300000000E+03 0.  1.
<mgrwt>
<rscale>  2 0.19841241E+03</rscale>
<asrwt>0</asrwt>
<pdfrwt beam="1">  1       21 0.48305827E-01 0.19841241E+03</pdfrwt>
<pdfrwt beam="2">  1       21 0.24978757E-01 0.19841241E+03</pdfrwt>
<totfact> 0.61941313E+04</totfact>
</mgrwt>
</event>
<event>
 4    1  0.4441180E+000  0.2310683E+03  0.7546771E-02  0.1125890E+00
         21   -1    0    0  503  502  0.00000000000E+00  0.00000000000E+00  0.24443994174E+03  0.24443994174E+03  0.00000000000E+00 0.  1.
         21   -1    0    0  501  503 -0.00000000000E+00 -0.00000000000E+00 -0.33398972089E+03  0.33398972089E+03  0.00000000000E+00 0. -1.
          6    1    1    2  501    0 -0.70097757476E+02 -0.13619785838E+03 -0.21489702318E+03  0.31555234558E+03  0.17300000000E+03 0.  1.
         -6    1    1    2    0  502  0.70097757476E+02  0.13619785838E+03  0.12534724404E+03  0.26287731705E+03  0.17300000000E+03 0.  1.
<mgrwt>
<rscale>  2 0.23106828E+03</rscale>
<asrwt>0</asrwt>
<pdfrwt beam="1">  1       21 0.37606145E-01 0.23106828E+03</pdfrwt>
<pdfrwt beam="2">  1       21 0.51383034E-01 0.23106828E+03</pdfrwt>
<totfact> 0.24034308E+04</totfact>
</mgrwt>
</event>
<event>
 4    1  0.4441180E+000  0.2487427E+03  0.7546771E-02  0.1114102E+00
         21   -1    0    0  503  502  0.00000000000E+00  0.00000000000E+00  0.74964013605E+02  0.74964013605E+02  0.00000000000E+00 0.  1.
         21   -1    0    0  501  503 -0.00000000000E+00 -0.00000000000E+00 -0.12010140591E+04  0.12010140591E+04  0.00000000000E+00 0. -1.
          6    1    1    2  501    0 -0.14931437423E+03 -0.98229993328E+02 -0.91982799658E+03  0.95286749196E+03  0.17300000000E+03 0. -1.
         -6    1    1    2    0  502  0.14931437423E+03  0.98229993328E+02 -0.20622204895E+03  0.32311058078E+03  0.17300000000E+03 0.  1.
<mgrwt>
<rscale>  2 0.24874267E+03</rscale>
<asrwt>0</asrwt>
<pdfrwt beam="1">  1       21 0.11532925E-01 0.24874267E+03</pdfrwt>
<pdfrwt beam="2">  1       21 0.18477140E+00 0.24874267E+03</pdfrwt>
<totfact> 0.10215290E+04</totfact>
</mgrwt>
</event>
<event>
 4    1  0.4441180E+000  0.2249814E+03  0.7546771E-02  0.1130223E+00
         21   -1    0    0  501  502  0.00000000000E+00  0.00000000000E+00  0.71252177699E+02  0.71252177699E+02  0.00000000000E+00 0.  1.
         21   -1    0    0  502  503 -0.00000000000E+00 -0.00000000000E+00 -0.80575686653E+03  0.80575686653E+03  0.00000000000E+00 0. -1.
          6    1    1    2  501    0  0.15045150024E+02  0.14304294891E+03 -0.21639134350E+03  0.31215678002E+03  0.17300000000E+03 0.  1.
         -6    1    1    2    0  503 -0.15045150024E+02 -0.14304294891E+03 -0.51811334534E+03  0.56485226421E+03  0.17300000000E+03 0. -1.
<mgrwt>
<rscale>  2 0.22498143E+03</rscale>
<asrwt>0</asrwt>
<pdfrwt beam="1">  1       21 0.10961873E-01 0.22498143E+03</pdfrwt>
<pdfrwt beam="2">  1       21 0.12396260E+00 0.22498143E+03</pdfrwt>
<totfact> 0.32983684E+04</totfact>
</mgrwt>
</event>
<event>
 4    1  0.4441180E+000  0.1823309E+03  0.7546771E-02  0.1165566E+00
         21   -1    0    0  503  502  0.00000000000E+00  0.00000000000E+00  0.54962266023E+02  0.54962266023E+02  0.00000000000E+00 0.  1.
         21   -1    0    0  501  503 -0.00000000000E+00 -0.00000000000E+00 -0.60946389073E+03  0.60946389073E+03  0.00000000000E+00 0.  1.
          6    1    1    2  501    0  0.18828458264E+02  0.54415356860E+02 -0.24838067355E+03  0.30811929653E+03  0.17300000000E+03 0.  1.
         -6    1    1    2    0  502 -0.18828458264E+02 -0.54415356860E+02 -0.30612095116E+03  0.35630686022E+03  0.17300000000E+03 0.  1.
<mgrwt>
<rscale>  2 0.18233086E+03</rscale>
<asrwt>0</asrwt>
<pdfrwt beam="1">  1       21 0.84557329E-02 0.18233086E+03</pdfrwt>
<pdfrwt beam="2">  1       21 0.93763679E-01 0.18233086E+03</pdfrwt>
<totfact> 0.10449452E+05</totfact>
</mgrwt>
</event>
<event>
 4    1  0.4441180E+000  0.1925880E+03  0.7546771E-02  0.1156148E+00
         21   -1    0    0  503  502  0.00000000000E+00  0.00000000000E+00  0.97778968888E+02  0.97778968888E+02  0.00000000000E+00 0.  1.
         21   -1    0    0  501  503 -0.00000000000E+00 -0.00000000000E+00 -0.43535273570E+03  0.43535273570E+03  0.00000000000E+00 0. -1.
          6    1    1    2  501    0 -0.84543263653E+02  0.36820878838E+01 -0.26441396444E+03  0.32711598217E+03  0.17300000000E+03 0. -1.
         -6    1    1    2    0  502  0.84543263653E+02 -0.36820878838E+01 -0.73159802372E+02  0.20601572242E+03  0.17300000000E+03 0.  1.
<mgrwt>
<rscale>  2 0.19258796E+03</rscale>
<asrwt>0</asrwt>
<pdfrwt beam="1">  1       21 0.15042918E-01 0.19258796E+03</pdfrwt>
<pdfrwt beam="2">  1       21 0.66977345E-01 0.19258796E+03</pdfrwt>
<totfact> 0.79677292E+04</totfact>
</mgrwt>
</event>
<event>
 4    1  0.4441180E+000  0.2616242E+03  0.7546771E-02  0.1106171E+00
         21   -1    0    0  501  502  0.00000000000E+00  0.00000000000E+00  0.75340831630E+02  0.75340831630E+02  0.00000000000E+00 0.  1.
         21   -1    0    0  502  503 -0.00000000000E+00 -0.00000000000E+00 -0.11344760573E+04  0.11344760573E+04  0.00000000000E+00 0. -1.
          6    1    1    2  501    0  0.10785172743E+03  0.16397020264E+03 -0.79954178133E+03  0.84125756018E+03  0.17300000000E+03 0. -1.
         -6    1    1    2    0  503 -0.10785172743E+03 -0.16397020264E+03 -0.25959344434E+03  0.36855932875E+03  0.17300000000E+03 0.  1.
<mgrwt>
<rscale>  2 0.26162420E+03</rscale>
<asrwt>0</asrwt>
<pdfrwt beam="1">  1       21 0.11590898E-01 0.26162420E+03</pdfrwt>
<pdfrwt beam="2">  1       21 0.17453476E+00 0.26162420E+03</pdfrwt>
<totfact> 0.11817462E+04</totfact>
</mgrwt>
</event>
<event>
 4    1  0.4441180E+000  0.2012423E+03  0.7546771E-02  0.1148695E+00
         21   -1    0    0  503  502  0.00000000000E+00  0.00000000000E+00  0.82236028402E+03  0.82236028402E+03  0.00000000000E+00 0.  1.
         21   -1    0    0  501  503 -0.00000000000E+00 -0.00000000000E+00 -0.16474022025E+03  0.16474022025E+03  0.00000000000E+00 0. -1.
          6    1    1    2  501    0 -0.86849304372E+02  0.55015026731E+02 -0.84437757173E+02  0.21823883631E+03  0.17300000000E+03 0. -1.
         -6    1    1    2    0  502  0.86849304372E+02 -0.55015026731E+02  0.74205782094E+03  0.76886166796E+03  0.17300000000E+03 0.  1.
<mgrwt>
<rscale>  2 0.20124228E+03</rscale>
<asrwt>0</asrwt>
<pdfrwt beam="1">  1       21 0.12651696E+00 0.20124228E+03</pdfrwt>
<pdfrwt beam="2">  1       21 0.25344650E-01 0.20124228E+03</pdfrwt>
<totfact> 0.67838886E+03</totfact>
</mgrwt>
</event>
<event>
 4    1  0.4441180E+000  0.2350536E+03  0.7546771E-02  0.1123133E+00
         21   -1    0    0  501  502  0.00000000000E+00  0.00000000000E+00  0.20860647360E+03  0.20860647360E+03  0.00000000000E+00 0. -1.
         21   -1    0    0  502  503 -0.00000000000E+00 -0.00000000000E+00 -0.73143602786E+03  0.73143602786E+03  0.00000000000E+00 0. -1.
          6    1    1    2  501    0  0.98741376199E+02  0.12478507431E+03  0.11398456920E+03  0.26123295382E+03  0.17300000000E+03 0. -1.
         -6    1    1    2    0  503 -0.98741376199E+02 -0.12478507431E+03 -0.63681412345E+03  0.67880954764E+03  0.17300000000E+03 0. -1.
<mgrwt>
<rscale>  2 0.23505356E+03</rscale>
<asrwt>0</asrwt>
<pdfrwt beam="1">  1       21 0.32093304E-01 0.23505356E+03</pdfrwt>
<pdfrwt beam="2">  1       21 0.11252862E+00 0.23505356E+03</pdfrwt>
<totfact> 0.55949988E+03</totfact>
</mgrwt>
</event>
<event>
 4    1  0.4441180E+000  0.2217053E+03  0.7546771E-02  0.1132618E+00
         21   -1    0    0  503  502  0.00000000000E+00  0.00000000000E+00  0.57754894161E+03  0.57754894161E+03  0.00000000000E+00 0. -1.
         21   -1    0    0  501  503 -0.00000000000E+00 -0.00000000000E+00 -0.38727476093E+03  0.38727476093E+03  0.00000000000E+00 0. -1.
          6    1    1    2  501    0 -0.41293560617E+02  0.13235962492E+03 -0.33098369598E+03  0.39837599759E+03  0.17300000000E+03 0. -1.
         -6    1    1    2    0  502  0.41293560617E+02 -0.13235962492E+03  0.52125787666E+03  0.56644770494E+03  0.17300000000E+03 0. -1.
<mgrwt>
<rscale>  2 0.22170527E+03</rscale>
<asrwt>0</asrwt>
<pdfrwt beam="1">  1       21 0.88853683E-01 0.22170527E+03</pdfrwt>
<pdfrwt beam="2">  1       21 0.59580732E-01 0.22170527E+03</pdfrwt>
<totfact> 0.27791330E+03</totfact>
</mgrwt>
</event>
<event>
 4    1  0.4441180E+000  0.1784429E+03  0.7546771E-02  0.1169319E+00
         21   -1    0    0  501  502  0.00000000000E+00  0.00000000000E+00  0.11693855669E+03  0.11693855669E+03  0.00000000000E+00 0. -1.
         21   -1    0    0  502  503 -0.00000000000E+00 -0.00000000000E+00 -0.27711216089E+03  0.27711216089E+03  0.00000000000E+00 0. -1.
          6    1    1    2  501    0 -0.16163046282E+02  0.40640053306E+02 -0.54111446804E+02  0.18646690503E+03  0.17300000000E+03 0. -1.
         -6    1    1    2    0  503  0.16163046282E+02 -0.40640053306E+02 -0.10606215739E+03  0.20758381254E+03  0.17300000000E+03 0. -1.
<mgrwt>
<rscale>  2 0.17844287E+03</rscale>
<asrwt>0</asrwt>
<pdfrwt beam="1">  1       21 0.17990547E-01 0.17844287E+03</pdfrwt>
<pdfrwt beam="2">  1       21 0.42632640E-01 0.17844287E+03</pdfrwt>
<totfact> 0.14942593E+05</totfact>
</mgrwt>
</event>
<event>
 4    1  0.4441180E+000  0.1790977E+03  0.7546771E-02  0.1168679E+00
         21   -1    0    0  501  502  0.00000000000E+00  0.00000000000E+00  0.11352871619E+03  0.11352871619E+03  0.00000000000E+00 0. -1.
         21   -1    0    0  502  503 -0.00000000000E+00 -0.00000000000E+00 -0.35127627107E+03  0.35127627107E+03  0.00000000000E+00 0. -1.
          6    1    1    2  501    0  0.44945502340E+02  0.11264968857E+02 -0.16067259066E+02  0.17981700286E+03  0.17300000000E+03 0. -1.
         -6    1    1    2    0  503 -0.44945502340E+02 -0.11264968857E+02 -0.22168029581E+03  0.28498798440E+03  0.17300000000E+03 0. -1.
<mgrwt>
<rscale>  2 0.17909773E+03</rscale>
<asrwt>0</asrwt>
<pdfrwt beam="1">  1       21 0.17465957E-01 0.17909773E+03</pdfrwt>
<pdfrwt beam="2">  1       21 0.54042502E-01 0.17909773E+03</pdfrwt>
<totfact> 0.96584281E+04</totfact>
</mgrwt>
</event>
<event>
 4    1  0.4441180E+000  0.1867294E+03  0.7546771E-02  0.1161445E+00
         21   -1    0    0  503  502  0.00000000000E+00  0.00000000000E+00  0.56310179899E+03  0.56310179899E+03  0.00000000000E+00 0. -1.
         21   -1    0    0  501  503 -0.00000000000E+00 -0.00000000000E+00 -0.73176623698E+02  0.73176623698E+02  0.00000000000E+00 0. -1.
          6    1    1    2  501    0 -0.68944709348E+02 -0.13619516995E+02  0.12019134299E+03  0.22206715903E+03  0.17300000000E+03 0. -1.
         -6    1    1    2    0  502  0.68944709348E+02  0.13619516995E+02  0.36973383231E+03  0.41421126366E+03  0.17300000000E+03 0. -1.
<mgrwt>
<rscale>  2 0.18672939E+03</rscale>
<asrwt>0</asrwt>
<pdfrwt beam="1">  1       21 0.86631043E-01 0.18672939E+03</pdfrwt>
<pdfrwt beam="2">  1       21 0.11257942E-01 0.18672939E+03</pdfrwt>
<totfact> 0.75636421E+04</totfact>
</mgrwt>
</event>
<event>
 4    1  0.4441180E+000  0.1805071E+03  0.7546771E-02  0.1167313E+00
         21   -1    0    0  503  502  0.00000000000E+00  0.00000000000E+00  0.50908699793E+03  0.50908699793E+03  0.00000000000E+00 0. -1.
         21   -1    0    0  501  503 -0.00000000000E+00 -0.00000000000E+00 -0.64085889814E+02  0.64085889814E+02  0.00000000000E+00 0. -1.
          6    1    1    2  501    0 -0.50407352741E+02  0.10626234956E+02  0.21215994736E+03  0.27855818305E+03  0.17300000000E+03 0.  1.
         -6    1    1    2    0  502  0.50407352741E+02 -0.10626234956E+02  0.23284116075E+03  0.29461470469E+03  0.17300000000E+03 0.  1.
<mgrwt>
<rscale>  2 0.18050711E+03</rscale>
<asrwt>0</asrwt>
<pdfrwt beam="1">  1       21 0.78321074E-01 0.18050711E+03</pdfrwt>
<pdfrwt beam="2">  1       21 0.98593680E-02 0.18050711E+03</pdfrwt>
<totfact> 0.12057579E+05</totfact>
</mgrwt>
</event>
<event>
 4    1  0.4441180E+000  0.1872904E+03  0.7546771E-02  0.1160928E+00
         21   -1    0    0  503  502  0.00000000000E+00  0.00000000000E+00  0.22795135932E+03  0.22795135932E+03  0.00000000000E+00 0.  1.
         21   -1    0    0  501  503 -0.00000000000E+00 -0.00000000000E+00 -0.17273199932E+03  0.17273199932E+03  0.00000000000E+00 0.  1.
          6    1    1    2  501    0  0.33475233948E+02  0.63467233978E+02 -0.38571886367E+02  0.19122100171E+03  0.17300000000E+03 0.  1.
         -6    1    1    2    0  502 -0.33475233948E+02 -0.63467233978E+02  0.93791246368E+02  0.20946235693E+03  0.17300000000E+03 0.  1.
<mgrwt>
<rscale>  2 0.18729037E+03</rscale>
<asrwt>0</asrwt>
<pdfrwt beam="1">  1       21 0.35069440E-01 0.18729037E+03</pdfrwt>
<pdfrwt beam="2">  1       21 0.26574154E-01 0.18729037E+03</pdfrwt>
<totfact> 0.10583204E+05</totfact>
</mgrwt>
</event>
<event>
 4    1  0.4441180E+000  0.3338645E+03  0.7546771E-02  0.1069440E+00
         21   -1    0    0  501  502  0.00000000000E+00  0.00000000000E+00  0.25014377646E+03  0.25014377646E+03  0.00000000000E+00 0. -1.
         21   -1    0    0  502  503 -0.00000000000E+00 -0.00000000000E+00 -0.61578246229E+03  0.61578246229E+03  0.00000000000E+00 0.  1.
          6    1    1    2  501    0 -0.27122318657E+03 -0.89300041281E+02  0.44788521333E+02  0.33685534870E+03  0.17300000000E+03 0. -1.
         -6    1    1    2    0  503  0.27122318657E+03  0.89300041281E+02 -0.41042720716E+03  0.52907089004E+03  0.17300000000E+03 0.  1.
<mgrwt>
<rscale>  2 0.33386451E+03</rscale>
<asrwt>0</asrwt>
<pdfrwt beam="1">  1       21 0.38483658E-01 0.33386451E+03</pdfrwt>
<pdfrwt beam="2">  1       21 0.94735763E-01 0.33386451E+03</pdfrwt>
<totfact> 0.55841880E+03</totfact>
</mgrwt>
</event>
<event>
 4    1  0.4441180E+000  0.2133091E+03  0.7546771E-02  0.1138972E+00
         21   -1    0    0  503  502  0.00000000000E+00  0.00000000000E+00  0.94324182052E+02  0.94324182052E+02  0.00000000000E+00 0. -1.
         21   -1    0    0  501  503 -0.00000000000E+00 -0.00000000000E+00 -0.53200243594E+03  0.53200243594E+03  0.00000000000E+00 0.  1.
          6    1    1    2  501    0 -0.47305619703E+02  0.11547279969E+03 -0.31447505586E+03  0.37999388137E+03  0.17300000000E+03 0. -1.
         -6    1    1    2    0  502  0.47305619703E+02 -0.11547279969E+03 -0.12320319803E+03  0.24633273662E+03  0.17300000000E+03 0. -1.
<mgrwt>
<rscale>  2 0.21330914E+03</rscale>
<asrwt>0</asrwt>
<pdfrwt beam="1">  1       21 0.14511412E-01 0.21330914E+03</pdfrwt>
<pdfrwt beam="2">  1       21 0.81846530E-01 0.21330914E+03</pdfrwt>
<totfact> 0.53873460E+04</totfact>
</mgrwt>
</event>
<event>
 4    1  0.4441180E+000  0.1807770E+03  0.7546771E-02  0.1167053E+00
         21   -1    0    0  501  502  0.00000000000E+00  0.00000000000E+00  0.46633209679E+03  0.46633209679E+03  0.00000000000E+00 0. -1.
         21   -1    0    0  502  503 -0.00000000000E+00 -0.00000000000E+00 -0.25120390596E+03  0.25120390596E+03  0.00000000000E+00 0. -1.
          6    1    1    2  501    0 -0.26656515929E+02 -0.45174620196E+02  0.41220555303E+03  0.45010413695E+03  0.17300000000E+03 0. -1.
         -6    1    1    2    0  503  0.26656515929E+02  0.45174620196E+02 -0.19707736220E+03  0.26743186580E+03  0.17300000000E+03 0. -1.
<mgrwt>
<rscale>  2 0.18077698E+03</rscale>
<asrwt>0</asrwt>
<pdfrwt beam="1">  1       21 0.71743399E-01 0.18077698E+03</pdfrwt>
<pdfrwt beam="2">  1       21 0.38646755E-01 0.18077698E+03</pdfrwt>
<totfact> 0.11421074E+04</totfact>
</mgrwt>
</event>
<event>
 4    1  0.4441180E+000  0.2631051E+03  0.7546771E-02  0.1105292E+00
         21   -1    0    0  501  502  0.00000000000E+00  0.00000000000E+00  0.73544167237E+02  0.73544167237E+02  0.00000000000E+00 0. -1.
         21   -1    0    0  502  503 -0.00000000000E+00 -0.00000000000E+00 -0.11654072181E+04  0.11654072181E+04  0.00000000000E+00 0.  1.
          6    1    1    2  501    0 -0.18850120512E+03 -0.61340025874E+02 -0.27425600313E+03  0.38005349408E+03  0.17300000000E+03 0.  1.
         -6    1    1    2    0  503  0.18850120512E+03  0.61340025874E+02 -0.81760704772E+03  0.85889789124E+03  0.17300000000E+03 0. -1.
<mgrwt>
<rscale>  2 0.26310512E+03</rscale>
<asrwt>0</asrwt>
<pdfrwt beam="1">  1       21 0.11314487E-01 0.26310512E+03</pdfrwt>
<pdfrwt beam="2">  1       21 0.17929343E+00 0.26310512E+03</pdfrwt>
<totfact> 0.11423304E+04</totfact>
</mgrwt>
</event>
<event>
 4    1  0.4441180E+000  0.1934802E+03  0.7546771E-02  0.1155359E+00
         21   -1    0    0  503  502  0.00000000000E+00  0.00000000000E+00  0.70140493653E+03  0.70140493653E+03  0.00000000000E+00 0. -1.
         21   -1    0    0  501  503 -0.00000000000E+00 -0.00000000000E+00 -0.70155842320E+02  0.70155842320E+02  0.00000000000E+00 0.  1.
          6    1    1    2  501    0  0.86573922624E+02  0.32455196254E+01  0.12692589314E+03  0.23139740669E+03  0.17300000000E+03 0.  1.
         -6    1    1    2    0  502 -0.86573922624E+02 -0.32455196254E+01  0.50432320107E+03  0.54016337215E+03  0.17300000000E+03 0. -1.
<mgrwt>
<rscale>  2 0.19348017E+03</rscale>
<asrwt>0</asrwt>
<pdfrwt beam="1">  1       21 0.10790845E+00 0.19348017E+03</pdfrwt>
<pdfrwt beam="2">  1       21 0.10793207E-01 0.19348017E+03</pdfrwt>
<totfact> 0.48474463E+04</totfact>
</mgrwt>
</event>
<event>
 4    1  0.4441180E+000  0.3721486E+03  0.7546771E-02  0.1053874E+00
         21   -1    0    0  501  502  0.00000000000E+00  0.00000000000E+00  0.89470971085E+03  0.89470971085E+03  0.00000000000E+00 0. -1.
         21   -1    0    0  502  503 -0.00000000000E+00 -0.00000000000E+00 -0.16141543357E+03  0.16141543357E+03  0.00000000000E+00 0.  1.
          6    1    1    2  501    0  0.25341690391E+03 -0.21058362814E+03  0.25968518914E+03  0.45379619775E+03  0.17300000000E+03 0. -1.
         -6    1    1    2    0  503 -0.25341690391E+03  0.21058362814E+03  0.47360908813E+03  0.60232894667E+03  0.17300000000E+03 0. -1.
<mgrwt>
<rscale>  2 0.37214861E+03</rscale>
<asrwt>0</asrwt>
<pdfrwt beam="1">  1       21 0.13764764E+00 0.37214861E+03</pdfrwt>
<pdfrwt beam="2">  1       21 0.24833144E-01 0.37214861E+03</pdfrwt>
<totfact> 0.51606858E+03</totfact>
</mgrwt>
</event>
<event>
 4    1  0.4441180E+000  0.2093680E+03  0.7546771E-02  0.1142067E+00
         21   -1    0    0  501  502  0.00000000000E+00  0.00000000000E+00  0.25784896974E+03  0.25784896974E+03  0.00000000000E+00 0. -1.
         21   -1    0    0  502  503 -0.00000000000E+00 -0.00000000000E+00 -0.29729623664E+03  0.29729623664E+03  0.00000000000E+00 0. -1.
          6    1    1    2  501    0 -0.60640292477E+01 -0.11776748181E+03  0.16190550560E+03  0.26466647873E+03  0.17300000000E+03 0. -1.
         -6    1    1    2    0  503  0.60640292477E+01  0.11776748181E+03 -0.20135277250E+03  0.29047872764E+03  0.17300000000E+03 0. -1.
<mgrwt>
<rscale>  2 0.20936798E+03</rscale>
<asrwt>0</asrwt>
<pdfrwt beam="1">  1       21 0.39669072E-01 0.20936798E+03</pdfrwt>
<pdfrwt beam="2">  1       21 0.45737882E-01 0.20936798E+03</pdfrwt>
<totfact> 0.27812763E+04</totfact>
</mgrwt>
</event>
<event>
 4    1  0.4441180E+000  0.2086061E+03  0.7546771E-02  0.1142675E+00
         21   -1    0    0  503  502  0.00000000000E+00  0.00000000000E+00  0.16067796592E+03  0.16067796592E+03  0.00000000000E+00 0.  1.
         21   -1    0    0  501  503 -0.00000000000E+00 -0.00000000000E+00 -0.34786139352E+03  0.34786139352E+03  0.00000000000E+00 0.  1.
          6    1    1    2  501    0  0.28737357945E+02  0.11296749582E+03 -0.21324482074E+03  0.29831165654E+03  0.17300000000E+03 0.  1.
         -6    1    1    2    0  502 -0.28737357945E+02 -0.11296749582E+03  0.26061393140E+02  0.21022770290E+03  0.17300000000E+03 0.  1.
<mgrwt>
<rscale>  2 0.20860607E+03</rscale>
<asrwt>0</asrwt>
<pdfrwt beam="1">  1       21 0.24719688E-01 0.20860607E+03</pdfrwt>
<pdfrwt beam="2">  1       21 0.53517136E-01 0.20860607E+03</pdfrwt>
<totfact> 0.50746713E+04</totfact>
</mgrwt>
</event>
<event>
 4    1  0.4441180E+000  0.1847373E+03  0.7546771E-02  0.1163295E+00
         21   -1    0    0  503  502  0.00000000000E+00  0.00000000000E+00  0.11211647891E+04  0.11211647891E+04  0.00000000000E+00 0.  1.
         21   -1    0    0  501  503 -0.00000000000E+00 -0.00000000000E+00 -0.45028778439E+02  0.45028778439E+02  0.00000000000E+00 0.  1.
          6    1    1    2  501    0 -0.17160060387E+02 -0.62485276987E+02  0.20616586373E+03  0.27682528945E+03  0.17300000000E+03 0.  1.
         -6    1    1    2    0  502  0.17160060387E+02  0.62485276987E+02  0.86997014691E+03  0.88936827806E+03  0.17300000000E+03 0.  1.
<mgrwt>
<rscale>  2 0.18473732E+03</rscale>
<asrwt>0</asrwt>
<pdfrwt beam="1">  1       21 0.17248687E+00 0.18473732E+03</pdfrwt>
<pdfrwt beam="2">  1       21 0.69275052E-02 0.18473732E+03</pdfrwt>
<totfact> 0.31735768E+04</totfact>
</mgrwt>
</event>
<event>
 4    1  0.4441180E+000  0.2428036E+03  0.7546771E-02  0.1117939E+00
         21   -1    0    0  503  502  0.00000000000E+00  0.00000000000E+00  0.17662742720E+04  0.17662742720E+04  0.00000000000E+00 0. -1.
         21   -1    0    0  501  503 -0.00000000000E+00 -0.00000000000E+00 -0.37683258250E+02  0.37683258250E+02  0.00000000000E+00 0.  1.
          6    1    1    2  501    0  0.14809562357E+03 -0.84215641087E+02  0.11691927682E+04  0.11941378971E+04  0.17300000000E+03 0.  1.
         -6    1    1    2    0  502 -0.14809562357E+03  0.84215641087E+02  0.55939824549E+03  0.60981963315E+03  0.17300000000E+03 0.  1.
<mgrwt>
<rscale>  2 0.24280360E+03</rscale>
<asrwt>0</asrwt>
<pdfrwt beam="1">  1       21 0.27173444E+00 0.24280360E+03</pdfrwt>
<pdfrwt beam="2">  1       21 0.57974257E-02 0.24280360E+03</pdfrwt>
<totfact> 0.99223380E+03</totfact>
</mgrwt>
</event>
<event>
 4    1  0.4441180E+000  0.2677228E+03  0.7546771E-02  0.1102590E+00
         21   -1    0    0  503  502  0.00000000000E+00  0.00000000000E+00  0.17531459739E+04  0.17531459739E+04  0.00000000000E+00 0.  1.
         21   -1    0    0  501  503 -0.00000000000E+00 -0.00000000000E+00 -0.70254183966E+02  0.70254183966E+02  0.00000000000E+00 0. -1.
          6    1    1    2  501    0  0.20232036320E+03 -0.28512832347E+02  0.25196506167E+03  0.36764371785E+03  0.17300000000E+03 0. -1.
         -6    1    1    2    0  502 -0.20232036320E+03  0.28512832347E+02  0.14309267282E+04  0.14557564400E+04  0.17300000000E+03 0.  1.
<mgrwt>
<rscale>  2 0.26772282E+03</rscale>
<asrwt>0</asrwt>
<pdfrwt beam="1">  1       21 0.26971473E+00 0.26772282E+03</pdfrwt>
<pdfrwt beam="2">  1       21 0.10808337E-01 0.26772282E+03</pdfrwt>
<totfact> 0.33561584E+03</totfact>
</mgrwt>
</event>
<event>
 4    1  0.4441180E+000  0.2179272E+03  0.7546771E-02  0.1135438E+00
         21   -1    0    0  503  502  0.00000000000E+00  0.00000000000E+00  0.20214963144E+03  0.20214963144E+03  0.00000000000E+00 0. -1.
         21   -1    0    0  501  503 -0.00000000000E+00 -0.00000000000E+00 -0.24096905979E+03  0.24096905979E+03  0.00000000000E+00 0. -1.
          6    1    1    2  501    0 -0.42547002147E+02 -0.12551098198E+03 -0.54466591571E+02  0.22463050458E+03  0.17300000000E+03 0. -1.
         -6    1    1    2    0  502  0.42547002147E+02  0.12551098198E+03  0.15647163211E+02  0.21848818665E+03  0.17300000000E+03 0. -1.
<mgrwt>
<rscale>  2 0.21792718E+03</rscale>
<asrwt>0</asrwt>
<pdfrwt beam="1">  1       21 0.31099944E-01 0.21792718E+03</pdfrwt>
<pdfrwt beam="2">  1       21 0.37072163E-01 0.21792718E+03</pdfrwt>
<totfact> 0.68935782E+04</totfact>
</mgrwt>
</event>
<event>
 4    1  0.4441180E+000  0.1869851E+03  0.7546771E-02  0.1161209E+00
         21   -1    0    0  501  502  0.00000000000E+00  0.00000000000E+00  0.67307985832E+03  0.67307985832E+03  0.00000000000E+00 0.  1.
         21   -1    0    0  502  503 -0.00000000000E+00 -0.00000000000E+00 -0.52462392232E+02  0.52462392232E+02  0.00000000000E+00 0. -1.
          6    1    1    2  501    0  0.15364470970E+02 -0.69270329544E+02  0.27429867600E+03  0.33196868705E+03  0.17300000000E+03 0.  1.
         -6    1    1    2    0  503 -0.15364470970E+02  0.69270329544E+02  0.34631879009E+03  0.39357356351E+03  0.17300000000E+03 0.  1.
<mgrwt>
<rscale>  2 0.18698515E+03</rscale>
<asrwt>0</asrwt>
<pdfrwt beam="1">  1       21 0.10355074E+00 0.18698515E+03</pdfrwt>
<pdfrwt beam="2">  1       21 0.80711378E-02 0.18698515E+03</pdfrwt>
<totfact> 0.89476077E+04</totfact>
</mgrwt>
</event>
<event>
 4    1  0.4441180E+000  0.2095110E+03  0.7546771E-02  0.1141954E+00
         21   -1    0    0  501  502  0.00000000000E+00  0.00000000000E+00  0.53742556837E+02  0.53742556837E+02  0.00000000000E+00 0.  1.
         21   -1    0    0  502  503 -0.00000000000E+00 -0.00000000000E+00 -0.91560180744E+03  0.91560180744E+03  0.00000000000E+00 0. -1.
          6    1    1    2  501    0 -0.10349452717E+03  0.57050240094E+02 -0.27168602334E+03  0.34308620248E+03  0.17300000000E+03 0.  1.
         -6    1    1    2    0  503  0.10349452717E+03 -0.57050240094E+02 -0.59017322726E+03  0.62625816180E+03  0.17300000000E+03 0. -1.
<mgrwt>
<rscale>  2 0.20951097E+03</rscale>
<asrwt>0</asrwt>
<pdfrwt beam="1">  1       21 0.82680862E-02 0.20951097E+03</pdfrwt>
<pdfrwt beam="2">  1       21 0.14086181E+00 0.20951097E+03</pdfrwt>
<totfact> 0.39518796E+04</totfact>
</mgrwt>
</event>
<event>
 4    1  0.4441180E+000  0.1948824E+03  0.7546771E-02  0.1154130E+00
         21   -1    0    0  501  502  0.00000000000E+00  0.00000000000E+00  0.73078463049E+03  0.73078463049E+03  0.00000000000E+00 0.  1.
         21   -1    0    0  502  503 -0.00000000000E+00 -0.00000000000E+00 -0.15485407623E+03  0.15485407623E+03  0.00000000000E+00 0.  1.
          6    1    1    2  501    0  0.80852542506E+02  0.38897536289E+02  0.64890822450E+03  0.67754043111E+03  0.17300000000E+03 0.  1.
         -6    1    1    2    0  503 -0.80852542506E+02 -0.38897536289E+02 -0.72977670246E+02  0.20809827561E+03  0.17300000000E+03 0.  1.
<mgrwt>
<rscale>  2 0.19488241E+03</rscale>
<asrwt>0</asrwt>
<pdfrwt beam="1">  1       21 0.11242840E+00 0.19488241E+03</pdfrwt>
<pdfrwt beam="2">  1       21 0.23823704E-01 0.19488241E+03</pdfrwt>
<totfact> 0.10268222E+04</totfact>
</mgrwt>
</event>
<event>
 4    1  0.4441180E+000  0.2522193E+03  0.7546771E-02  0.1111910E+00
         21   -1    0    0  503  502  0.00000000000E+00  0.00000000000E+00  0.86949245766E+02  0.86949245766E+02  0.00000000000E+00 0.  1.
         21   -1    0    0  501  503 -0.00000000000E+00 -0.00000000000E+00 -0.10227570083E+04  0.10227570083E+04  0.00000000000E+00 0. -1.
          6    1    1    2  501    0  0.98501890392E+02  0.15486422914E+03 -0.76393279073E+03  0.80449229992E+03  0.17300000000E+03 0. -1.
         -6    1    1    2    0  502 -0.98501890392E+02 -0.15486422914E+03 -0.17187497183E+03  0.30521395417E+03  0.17300000000E+03 0.  1.
<mgrwt>
<rscale>  2 0.25221925E+03</rscale>
<asrwt>0</asrwt>
<pdfrwt beam="1">  1       21 0.13376807E-01 0.25221925E+03</pdfrwt>
<pdfrwt beam="2">  1       21 0.15734723E+00 0.25221925E+03</pdfrwt>
<totfact> 0.12214491E+04</totfact>
</mgrwt>
</event>
<event>
 4    1  0.4441180E+000  0.1888211E+03  0.7546771E-02  0.1159529E+00
         21   -1    0    0  501  502  0.00000000000E+00  0.00000000000E+00  0.12348673058E+03  0.12348673058E+03  0.00000000000E+00 0.  1.
         21   -1    0    0  502  503 -0.00000000000E+00 -0.00000000000E+00 -0.33688593129E+03  0.33688593129E+03  0.00000000000E+00 0.  1.
          6    1    1    2  501    0  0.34252359244E+02  0.67462410643E+02 -0.19664050159E+02  0.18984223933E+03  0.17300000000E+03 0.  1.
         -6    1    1    2    0  503 -0.34252359244E+02 -0.67462410643E+02 -0.19373515055E+03  0.27053042255E+03  0.17300000000E+03 0.  1.
<mgrwt>
<rscale>  2 0.18882108E+03</rscale>
<asrwt>0</asrwt>
<pdfrwt beam="1">  1       21 0.18997959E-01 0.18882108E+03</pdfrwt>
<pdfrwt beam="2">  1       21 0.51828604E-01 0.18882108E+03</pdfrwt>
<totfact> 0.89931017E+04</totfact>
</mgrwt>
</event>
<event>
 4    1  0.4441180E+000  0.1984742E+03  0.7546771E-02  0.1151033E+00
         21   -1    0    0  503  502  0.00000000000E+00  0.00000000000E+00  0.29462805770E+03  0.29462805770E+03  0.00000000000E+00 0.  1.
         21   -1    0    0  501  503 -0.00000000000E+00 -0.00000000000E+00 -0.15188169341E+03  0.15188169341E+03  0.00000000000E+00 0.  1.
          6    1    1    2  501    0  0.67530885327E+01  0.97043244762E+02 -0.58693160840E+01  0.19856093380E+03  0.17300000000E+03 0.  1.
         -6    1    1    2    0  502 -0.67530885327E+01 -0.97043244762E+02  0.14861568037E+03  0.24794881732E+03  0.17300000000E+03 0.  1.
<mgrwt>
<rscale>  2 0.19847417E+03</rscale>
<asrwt>0</asrwt>
<pdfrwt beam="1">  1       21 0.45327393E-01 0.19847417E+03</pdfrwt>
<pdfrwt beam="2">  1       21 0.23366414E-01 0.19847417E+03</pdfrwt>
<totfact> 0.80215286E+04</totfact>
</mgrwt>
</event>
<event>
 4    1  0.4441180E+000  0.1857071E+03  0.7546771E-02  0.1162391E+00
         21   -1    0    0  503  502  0.00000000000E+00  0.00000000000E+00  0.42526751700E+03  0.42526751700E+03  0.00000000000E+00 0. -1.
         21   -1    0    0  501  503 -0.00000000000E+00 -0.00000000000E+00 -0.17985221330E+03  0.17985221330E+03  0.00000000000E+00 0. -1.
          6    1    1    2  501    0  0.59982995747E+02  0.30986476038E+02 -0.10149335990E+03  0.21163181136E+03  0.17300000000E+03 0. -1.
         -6    1    1    2    0  502 -0.59982995747E+02 -0.30986476038E+02  0.34690866360E+03  0.39348791894E+03  0.17300000000E+03 0. -1.
<mgrwt>
<rscale>  2 0.18570709E+03</rscale>
<asrwt>0</asrwt>
<pdfrwt beam="1">  1       21 0.65425771E-01 0.18570709E+03</pdfrwt>
<pdfrwt beam="2">  1       21 0.27669572E-01 0.18570709E+03</pdfrwt>
<totfact> 0.26890057E+04</totfact>
</mgrwt>
</event>
<event>
 4    1  0.4441180E+000  0.2379361E+03  0.7546771E-02  0.1121175E+00
         21   -1    0    0  503  502  0.00000000000E+00  0.00000000000E+00  0.14068660054E+03  0.14068660054E+03  0.00000000000E+00 0.  1.
         21   -1    0    0  501  503 -0.00000000000E+00 -0.00000000000E+00 -0.59847472596E+03  0.59847472596E+03  0.00000000000E+00 0. -1.
          6    1    1    2  501    0  0.16334190125E+03  0.20084996167E+01 -0.44043125176E+03  0.50059294671E+03  0.17300000000E+03 0. -1.
         -6    1    1    2    0  502 -0.16334190125E+03 -0.20084996167E+01 -0.17356873659E+02  0.23856837979E+03  0.17300000000E+03 0.  1.
<mgrwt>
<rscale>  2 0.23793615E+03</rscale>
<asrwt>0</asrwt>
<pdfrwt beam="1">  1       21 0.21644093E-01 0.23793615E+03</pdfrwt>
<pdfrwt beam="2">  1       21 0.92073033E-01 0.23793615E+03</pdfrwt>
<totfact> 0.19323451E+04</totfact>
</mgrwt>
</event>
<event>
 4    1  0.4441180E+000  0.2028371E+03  0.7546771E-02  0.1147367E+00
         21   -1    0    0  503  502  0.00000000000E+00  0.00000000000E+00  0.18407262077E+03  0.18407262077E+03  0.00000000000E+00 0. -1.
         21   -1    0    0  501  503 -0.00000000000E+00 -0.00000000000E+00 -0.32661624047E+03  0.32661624047E+03  0.00000000000E+00 0.  1.
          6    1    1    2  501    0 -0.38534027794E+02  0.98635872466E+02 -0.21473497960E+03  0.29538791122E+03  0.17300000000E+03 0.  1.
         -6    1    1    2    0  502  0.38534027794E+02 -0.98635872466E+02  0.72191359893E+02  0.21530095002E+03  0.17300000000E+03 0. -1.
<mgrwt>
<rscale>  2 0.20283714E+03</rscale>
<asrwt>0</asrwt>
<pdfrwt beam="1">  1       21 0.28318865E-01 0.20283714E+03</pdfrwt>
<pdfrwt beam="2">  1       21 0.50248652E-01 0.20283714E+03</pdfrwt>
<totfact> 0.44721160E+04</totfact>
</mgrwt>
</event>
<event>
 4    1  0.4441180E+000  0.1948170E+03  0.7546771E-02  0.1154187E+00
         21   -1    0    0  501  502  0.00000000000E+00  0.00000000000E+00  0.51666144555E+03  0.51666144555E+03  0.00000000000E+00 0.  1.
         21   -1    0    0  502  503 -0.00000000000E+00 -0.00000000000E+00 -0.82961885085E+02  0.82961885085E+02  0.00000000000E+00 0. -1.
          6    1    1    2  501    0 -0.73977967109E+02 -0.50516427848E+02  0.31831738477E+03  0.37320183084E+03  0.17300000000E+03 0. -1.
         -6    1    1    2    0  503  0.73977967109E+02  0.50516427848E+02  0.11538217570E+03  0.22642149980E+03  0.17300000000E+03 0. -1.
<mgrwt>
<rscale>  2 0.19481696E+03</rscale>
<asrwt>0</asrwt>
<pdfrwt beam="1">  1       21 0.79486374E-01 0.19481696E+03</pdfrwt>
<pdfrwt beam="2">  1       21 0.12763367E-01 0.19481696E+03</pdfrwt>
<totfact> 0.73249543E+04</totfact>
</mgrwt>
</event>
<event>
 4    1  0.4441180E+000  0.1999664E+03  0.7546771E-02  0.1149767E+00
         21   -1    0    0  503  502  0.00000000000E+00  0.00000000000E+00  0.30128182679E+03  0.30128182679E+03  0.00000000000E+00 0. -1.
         21   -1    0    0  501  503 -0.00000000000E+00 -0.00000000000E+00 -0.16874654592E+03  0.16874654592E+03  0.00000000000E+00 0. -1.
          6    1    1    2  501    0 -0.10012733428E+03 -0.56638296720E+01 -0.42319696695E+02  0.20439549595E+03  0.17300000000E+03 0. -1.
         -6    1    1    2    0  502  0.10012733428E+03  0.56638296720E+01  0.17485497756E+03  0.26563287676E+03  0.17300000000E+03 0. -1.
<mgrwt>
<rscale>  2 0.19996640E+03</rscale>
<asrwt>0</asrwt>
<pdfrwt beam="1">  1       21 0.46351050E-01 0.19996640E+03</pdfrwt>
<pdfrwt beam="2">  1       21 0.25961007E-01 0.19996640E+03</pdfrwt>
<totfact> 0.62623377E+04</totfact>
</mgrwt>
</event>
<event>
 4    1  0.4441180E+000  0.2080219E+03  0.7546771E-02  0.1143142E+00
         21   -1    0    0  503  502  0.00000000000E+00  0.00000000000E+00  0.73014838516E+03  0.73014838516E+03  0.00000000000E+00 0.  1.
         21   -1    0    0  501  503 -0.00000000000E+00 -0.00000000000E+00 -0.60653356737E+02  0.60653356737E+02  0.00000000000E+00 0.  1.
          6    1    1    2  501    0  0.11082560675E+03  0.32585096415E+02  0.39454411940E+03  0.44602484883E+03  0.17300000000E+03 0.  1.
         -6    1    1    2    0  502 -0.11082560675E+03 -0.32585096415E+02  0.27495090902E+03  0.34477689307E+03  0.17300000000E+03 0.  1.
<mgrwt>
<rscale>  2 0.20802188E+03</rscale>
<asrwt>0</asrwt>
<pdfrwt beam="1">  1       21 0.11233051E+00 0.20802188E+03</pdfrwt>
<pdfrwt beam="2">  1       21 0.93312862E-02 0.20802188E+03</pdfrwt>
<totfact> 0.56463767E+04</totfact>
</mgrwt>
</event>
<event>
 4    1  0.4441180E+000  0.1938831E+03  0.7546771E-02  0.1155005E+00
         21   -1    0    0  503  502  0.00000000000E+00  0.00000000000E+00  0.93815814135E+02  0.93815814135E+02  0.00000000000E+00 0.  1.
         21   -1    0    0  501  503 -0.00000000000E+00 -0.00000000000E+00 -0.40693709714E+03  0.40693709714E+03  0.00000000000E+00 0. -1.
          6    1    1    2  501    0 -0.49278283139E+02 -0.72341721987E+02 -0.12552852190E+03  0.23097204104E+03  0.17300000000E+03 0.  1.
         -6    1    1    2    0  502  0.49278283139E+02  0.72341721987E+02 -0.18759276110E+03  0.26978087024E+03  0.17300000000E+03 0. -1.
<mgrwt>
<rscale>  2 0.19388315E+03</rscale>
<asrwt>0</asrwt>
<pdfrwt beam="1">  1       21 0.14433202E-01 0.19388315E+03</pdfrwt>
<pdfrwt beam="2">  1       21 0.62605708E-01 0.19388315E+03</pdfrwt>
<totfact> 0.99434922E+04</totfact>
</mgrwt>
</event>
<event>
 4    1  0.4441180E+000  0.1839717E+03  0.7546771E-02  0.1164014E+00
         21   -1    0    0  501  502  0.00000000000E+00  0.00000000000E+00  0.23197481161E+03  0.23197481161E+03  0.00000000000E+00 0.  1.
         21   -1    0    0  502  503 -0.00000000000E+00 -0.00000000000E+00 -0.40301713069E+03  0.40301713069E+03  0.00000000000E+00 0.  1.
          6    1    1    2  501    0  0.52476306310E+02 -0.34100459108E+02  0.16807357262E+03  0.24918733886E+03  0.17300000000E+03 0.  1.
         -6    1    1    2    0  503 -0.52476306310E+02  0.34100459108E+02 -0.33911589170E+03  0.38580460344E+03  0.17300000000E+03 0.  1.
<mgrwt>
<rscale>  2 0.18397175E+03</rscale>
<asrwt>0</asrwt>
<pdfrwt beam="1">  1       21 0.35688433E-01 0.18397175E+03</pdfrwt>
<pdfrwt beam="2">  1       21 0.62002635E-01 0.18397175E+03</pdfrwt>
<totfact> 0.18374435E+04</totfact>
</mgrwt>
</event>
<event>
 4    1  0.4441180E+000  0.1744981E+03  0.7546771E-02  0.1173237E+00
         21   -1    0    0  503  502  0.00000000000E+00  0.00000000000E+00  0.73958618767E+02  0.73958618767E+02  0.00000000000E+00 0. -1.
         21   -1    0    0  501  503 -0.00000000000E+00 -0.00000000000E+00 -0.41245638367E+03  0.41245638367E+03  0.00000000000E+00 0. -1.
          6    1    1    2  501    0  0.21546242124E+02  0.75056408896E+01 -0.17958802607E+03  0.25040254452E+03  0.17300000000E+03 0.  1.
         -6    1    1    2    0  502 -0.21546242124E+02 -0.75056408896E+01 -0.15890973883E+03  0.23601245791E+03  0.17300000000E+03 0.  1.
<mgrwt>
<rscale>  2 0.17449807E+03</rscale>
<asrwt>0</asrwt>
<pdfrwt beam="1">  1       21 0.11378249E-01 0.17449807E+03</pdfrwt>
<pdfrwt beam="2">  1       21 0.63454830E-01 0.17449807E+03</pdfrwt>
<totfact> 0.14909524E+05</totfact>
</mgrwt>
</event>
<event>
 4    1  0.4441180E+000  0.2230657E+03  0.7546771E-02  0.1131618E+00
         21   -1    0    0  503  502  0.00000000000E+00  0.00000000000E+00  0.51021372127E+03  0.51021372127E+03  0.00000000000E+00 0. -1.
         21   -1    0    0  501  503 -0.00000000000E+00 -0.00000000000E+00 -0.24497597649E+03  0.24497597649E+03  0.00000000000E+00 0. -1.
          6    1    1    2  501    0  0.11141309784E+03  0.86118762556E+02 -0.16032804227E+03  0.27470602610E+03  0.17300000000E+03 0. -1.
         -6    1    1    2    0  502 -0.11141309784E+03 -0.86118762556E+02  0.42556578705E+03  0.48048367167E+03  0.17300000000E+03 0. -1.
<mgrwt>
<rscale>  2 0.22306573E+03</rscale>
<asrwt>0</asrwt>
<pdfrwt beam="1">  1       21 0.78494419E-01 0.22306573E+03</pdfrwt>
<pdfrwt beam="2">  1       21 0.37688612E-01 0.22306573E+03</pdfrwt>
<totfact> 0.95499610E+03</totfact>
</mgrwt>
</event>
<event>
 4    1  0.4441180E+000  0.2041550E+03  0.7546771E-02  0.1146280E+00
         21   -1    0    0  501  502  0.00000000000E+00  0.00000000000E+00  0.41997009005E+03  0.41997009005E+03  0.00000000000E+00 0. -1.
         21   -1    0    0  502  503 -0.00000000000E+00 -0.00000000000E+00 -0.10882826959E+03  0.10882826959E+03  0.00000000000E+00 0. -1.
          6    1    1    2  501    0 -0.23916163279E+02 -0.10572739742E+03  0.23403700403E+03  0.31056816432E+03  0.17300000000E+03 0. -1.
         -6    1    1    2    0  503  0.23916163279E+02  0.10572739742E+03  0.77104816424E+02  0.21823019531E+03  0.17300000000E+03 0. -1.
<mgrwt>
<rscale>  2 0.20415500E+03</rscale>
<asrwt>0</asrwt>
<pdfrwt beam="1">  1       21 0.64610782E-01 0.20415500E+03</pdfrwt>
<pdfrwt beam="2">  1       21 0.16742811E-01 0.20415500E+03</pdfrwt>
<totfact> 0.70478822E+04</totfact>
</mgrwt>
</event>
<event>
 4    1  0.4441180E+000  0.1857266E+03  0.7546771E-02  0.1162373E+00
         21   -1    0    0  501  502  0.00000000000E+00  0.00000000000E+00  0.23585487672E+03  0.23585487672E+03  0.00000000000E+00 0. -1.
         21   -1    0    0  502  503 -0.00000000000E+00 -0.00000000000E+00 -0.16128068094E+03  0.16128068094E+03  0.00000000000E+00 0.  1.
          6    1    1    2  501    0 -0.26090408279E+02 -0.62327185508E+02  0.97900611182E+02  0.20994979668E+03  0.17300000000E+03 0. -1.
         -6    1    1    2    0  503  0.26090408279E+02  0.62327185508E+02 -0.23326415398E+02  0.18718576098E+03  0.17300000000E+03 0.  1.
<mgrwt>
<rscale>  2 0.18572665E+03</rscale>
<asrwt>0</asrwt>
<pdfrwt beam="1">  1       21 0.36285366E-01 0.18572665E+03</pdfrwt>
<pdfrwt beam="2">  1       21 0.24812412E-01 0.18572665E+03</pdfrwt>
<totfact> 0.11282899E+05</totfact>
</mgrwt>
</event>
<event>
 4    1  0.4441180E+000  0.2266745E+03  0.7546771E-02  0.1129003E+00
         21   -1    0    0  503  502  0.00000000000E+00  0.00000000000E+00  0.21520201433E+03  0.21520201433E+03  0.00000000000E+00 0. -1.
         21   -1    0    0  501  503 -0.00000000000E+00 -0.00000000000E+00 -0.33191818811E+03  0.33191818811E+03  0.00000000000E+00 0. -1.
          6    1    1    2  501    0  0.13953401511E+03  0.44526048953E+02 -0.20328573357E+03  0.30447725675E+03  0.17300000000E+03 0. -1.
         -6    1    1    2    0  502 -0.13953401511E+03 -0.44526048953E+02  0.86569559795E+02  0.24264294569E+03  0.17300000000E+03 0. -1.
<mgrwt>
<rscale>  2 0.22667446E+03</rscale>
<asrwt>0</asrwt>
<pdfrwt beam="1">  1       21 0.33108003E-01 0.22667446E+03</pdfrwt>
<pdfrwt beam="2">  1       21 0.51064336E-01 0.22667446E+03</pdfrwt>
<totfact> 0.31466529E+04</totfact>
</mgrwt>
</event>
<event>
 4    1  0.4441180E+000  0.1789046E+03  0.7546771E-02  0.1168867E+00
         21   -1    0    0  503  502  0.00000000000E+00  0.00000000000E+00  0.11106632955E+03  0.11106632955E+03  0.00000000000E+00 0. -1.
         21   -1    0    0  501  503 -0.00000000000E+00 -0.00000000000E+00 -0.37055427084E+03  0.37055427084E+03  0.00000000000E+00 0. -1.
          6    1    1    2  501    0  0.27368432375E+01  0.45501091807E+02 -0.24328452120E+03  0.30198377096E+03  0.17300000000E+03 0. -1.
         -6    1    1    2    0  502 -0.27368432375E+01 -0.45501091807E+02 -0.16203420094E+02  0.17963682943E+03  0.17300000000E+03 0. -1.
<mgrwt>
<rscale>  2 0.17890455E+03</rscale>
<asrwt>0</asrwt>
<pdfrwt beam="1">  1       21 0.17087127E-01 0.17890455E+03</pdfrwt>
<pdfrwt beam="2">  1       21 0.57008350E-01 0.17890455E+03</pdfrwt>
<totfact> 0.89823214E+04</totfact>
</mgrwt>
</event>
<event>
 4    1  0.4441180E+000  0.3362770E+03  0.7546771E-02  0.1068393E+00
         21   -1    0    0  503  502  0.00000000000E+00  0.00000000000E+00  0.40211296884E+03  0.40211296884E+03  0.00000000000E+00 0. -1.
         21   -1    0    0  501  503 -0.00000000000E+00 -0.00000000000E+00 -0.37420084182E+03  0.37420084182E+03  0.00000000000E+00 0.  1.
          6    1    1    2  501    0 -0.23867008380E+03  0.16183268920E+03 -0.17953083475E+03  0.38120014273E+03  0.17300000000E+03 0.  1.
         -6    1    1    2    0  502  0.23867008380E+03 -0.16183268920E+03  0.20744296176E+03  0.39511366792E+03  0.17300000000E+03 0. -1.
<mgrwt>
<rscale>  2 0.33627701E+03</rscale>
<asrwt>0</asrwt>
<pdfrwt beam="1">  1       21 0.61863534E-01 0.33627701E+03</pdfrwt>
<pdfrwt beam="2">  1       21 0.57569360E-01 0.33627701E+03</pdfrwt>
<totfact> 0.63287418E+03</totfact>
</mgrwt>
</event>
<event>
 4    1  0.4441180E+000  0.2227880E+03  0.7546771E-02  0.1131821E+00
         21   -1    0    0  503  502  0.00000000000E+00  0.00000000000E+00  0.40853879529E+03  0.40853879529E+03  0.00000000000E+00 0. -1.
         21   -1    0    0  501  503 -0.00000000000E+00 -0.00000000000E+00 -0.30017230734E+03  0.30017230734E+03  0.00000000000E+00 0. -1.
          6    1    1    2  501    0  0.67906148064E+02 -0.12285857896E+03 -0.21921230600E+03  0.31255161249E+03  0.17300000000E+03 0. -1.
         -6    1    1    2    0  502 -0.67906148064E+02  0.12285857896E+03  0.32757879396E+03  0.39615949013E+03  0.17300000000E+03 0. -1.
<mgrwt>
<rscale>  2 0.22278796E+03</rscale>
<asrwt>0</asrwt>
<pdfrwt beam="1">  1       21 0.62852122E-01 0.22278796E+03</pdfrwt>
<pdfrwt beam="2">  1       21 0.46180355E-01 0.22278796E+03</pdfrwt>
<totfact> 0.10325710E+04</totfact>
</mgrwt>
</event>
<event>
 4    1  0.4441180E+000  0.2404029E+03  0.7546771E-02  0.1119525E+00
         21   -1    0    0  503  502  0.00000000000E+00  0.00000000000E+00  0.38872874830E+03  0.38872874830E+03  0.00000000000E+00 0.  1.
         21   -1    0    0  501  503 -0.00000000000E+00 -0.00000000000E+00 -0.75820740751E+03  0.75820740751E+03  0.00000000000E+00 0. -1.
          6    1    1    2  501    0  0.11979356765E+03 -0.11624989928E+03 -0.69891827174E+03  0.73910776515E+03  0.17300000000E+03 0. -1.
         -6    1    1    2    0  502 -0.11979356765E+03  0.11624989928E+03  0.32943961252E+03  0.40782839066E+03  0.17300000000E+03 0.  1.
<mgrwt>
<rscale>  2 0.24040287E+03</rscale>
<asrwt>0</asrwt>
<pdfrwt beam="1">  1       21 0.59804423E-01 0.24040287E+03</pdfrwt>
<pdfrwt beam="2">  1       21 0.11664729E+00 0.24040287E+03</pdfrwt>
<totfact> 0.14164667E+03</totfact>
</mgrwt>
</event>
<event>
 4    1  0.4441180E+000  0.1932715E+03  0.7546771E-02  0.1155543E+00
         21   -1    0    0  503  502  0.00000000000E+00  0.00000000000E+00  0.60329325566E+03  0.60329325566E+03  0.00000000000E+00 0.  1.
         21   -1    0    0  501  503 -0.00000000000E+00 -0.00000000000E+00 -0.99263533374E+02  0.99263533374E+02  0.00000000000E+00 0.  1.
          6    1    1    2  501    0 -0.16003977376E+02 -0.84668416069E+02  0.36546236251E+02  0.19669645486E+03  0.17300000000E+03 0.  1.
         -6    1    1    2    0  502  0.16003977376E+02  0.84668416069E+02  0.46748348603E+03  0.50586033417E+03  0.17300000000E+03 0.  1.
<mgrwt>
<rscale>  2 0.19327149E+03</rscale>
<asrwt>0</asrwt>
<pdfrwt beam="1">  1       21 0.92814345E-01 0.19327149E+03</pdfrwt>
<pdfrwt beam="2">  1       21 0.15271313E-01 0.19327149E+03</pdfrwt>
<totfact> 0.37125949E+04</totfact>
</mgrwt>
</event>
<event>
 4    1  0.4441180E+000  0.2061144E+03  0.7546771E-02  0.1144680E+00
         21   -1    0    0  503  502  0.00000000000E+00  0.00000000000E+00  0.21410268208E+03  0.21410268208E+03  0.00000000000E+00 0. -1.
         21   -1    0    0  501  503 -0.00000000000E+00 -0.00000000000E+00 -0.19889429619E+03  0.19889429619E+03  0.00000000000E+00 0.  1.
          6    1    1    2  501    0  0.53047521896E+02  0.98691879855E+02 -0.24363369473E+01  0.20612875216E+03  0.17300000000E+03 0. -1.
         -6    1    1    2    0  502 -0.53047521896E+02 -0.98691879855E+02  0.17644722843E+02  0.20686822611E+03  0.17300000000E+03 0.  1.
<mgrwt>
<rscale>  2 0.20611435E+03</rscale>
<asrwt>0</asrwt>
<pdfrwt beam="1">  1       21 0.32938874E-01 0.20611435E+03</pdfrwt>
<pdfrwt beam="2">  1       21 0.30599122E-01 0.20611435E+03</pdfrwt>
<totfact> 0.90468332E+04</totfact>
</mgrwt>
</event>
<event>
 4    1  0.4441180E+000  0.1965826E+03  0.7546771E-02  0.1152655E+00
         21   -1    0    0  501  502  0.00000000000E+00  0.00000000000E+00  0.15526561135E+03  0.15526561135E+03  0.00000000000E+00 0.  1.
         21   -1    0    0  502  503 -0.00000000000E+00 -0.00000000000E+00 -0.29772524969E+03  0.29772524969E+03  0.00000000000E+00 0.  1.
          6    1    1    2  501    0  0.89437191104E+02 -0.26771551736E+02  0.20497595561E+02  0.19764837100E+03  0.17300000000E+03 0.  1.
         -6    1    1    2    0  503 -0.89437191104E+02  0.26771551736E+02 -0.16295723390E+03  0.25534249003E+03  0.17300000000E+03 0.  1.
<mgrwt>
<rscale>  2 0.19658262E+03</rscale>
<asrwt>0</asrwt>
<pdfrwt beam="1">  1       21 0.23887017E-01 0.19658262E+03</pdfrwt>
<pdfrwt beam="2">  1       21 0.45803884E-01 0.19658262E+03</pdfrwt>
<totfact> 0.75352411E+04</totfact>
</mgrwt>
</event>
<event>
 4    1  0.4441180E+000  0.1833553E+03  0.7546771E-02  0.1164595E+00
         21   -1    0    0  501  502  0.00000000000E+00  0.00000000000E+00  0.95778491709E+03  0.95778491709E+03  0.00000000000E+00 0. -1.
         21   -1    0    0  502  503 -0.00000000000E+00 -0.00000000000E+00 -0.70786954052E+02  0.70786954052E+02  0.00000000000E+00 0. -1.
          6    1    1    2  501    0 -0.53083095392E+02 -0.29535587994E+02  0.80865373658E+03  0.82918033724E+03  0.17300000000E+03 0. -1.
         -6    1    1    2    0  503  0.53083095392E+02  0.29535587994E+02  0.78344226460E+02  0.19939153391E+03  0.17300000000E+03 0. -1.
<mgrwt>
<rscale>  2 0.18335530E+03</rscale>
<asrwt>0</asrwt>
<pdfrwt beam="1">  1       21 0.14735152E+00 0.18335530E+03</pdfrwt>
<pdfrwt beam="2">  1       21 0.10890301E-01 0.18335530E+03</pdfrwt>
<totfact> 0.21985546E+04</totfact>
</mgrwt>
</event>
<event>
 4    1  0.4441180E+000  0.1838841E+03  0.7546771E-02  0.1164096E+00
         21   -1    0    0  503  502  0.00000000000E+00  0.00000000000E+00  0.17092505432E+03  0.17092505432E+03  0.00000000000E+00 0.  1.
         21   -1    0    0  501  503 -0.00000000000E+00 -0.00000000000E+00 -0.34246472610E+03  0.34246472610E+03  0.00000000000E+00 0.  1.
          6    1    1    2  501    0  0.38108554676E+02 -0.49316475031E+02 -0.25259131742E+03  0.31243519374E+03  0.17300000000E+03 0.  1.
         -6    1    1    2    0  502 -0.38108554676E+02  0.49316475031E+02  0.81051645633E+02  0.20095458668E+03  0.17300000000E+03 0.  1.
<mgrwt>
<rscale>  2 0.18388414E+03</rscale>
<asrwt>0</asrwt>
<pdfrwt beam="1">  1       21 0.26296162E-01 0.18388414E+03</pdfrwt>
<pdfrwt beam="2">  1       21 0.52686881E-01 0.18388414E+03</pdfrwt>
<totfact> 0.47152310E+04</totfact>
</mgrwt>
</event>
<event>
 4    1  0.4441180E+000  0.3682207E+03  0.7546771E-02  0.1055375E+00
         21   -1    0    0  503  502  0.00000000000E+00  0.00000000000E+00  0.36736814216E+03  0.36736814216E+03  0.00000000000E+00 0.  1.
         21   -1    0    0  501  503 -0.00000000000E+00 -0.00000000000E+00 -0.67285333438E+03  0.67285333438E+03  0.00000000000E+00 0.  1.
          6    1    1    2  501    0 -0.29159814565E+03  0.14362465603E+03 -0.50221571368E+03  0.62274163458E+03  0.17300000000E+03 0.  1.
         -6    1    1    2    0  502  0.29159814565E+03 -0.14362465603E+03  0.19673052146E+03  0.41747984196E+03  0.17300000000E+03 0.  1.
<mgrwt>
<rscale>  2 0.36822075E+03</rscale>
<asrwt>0</asrwt>
<pdfrwt beam="1">  1       21 0.56518176E-01 0.36822075E+03</pdfrwt>
<pdfrwt beam="2">  1       21 0.10351590E+00 0.36822075E+03</pdfrwt>
<totfact> 0.19849148E+03</totfact>
</mgrwt>
</event>
<event>
 4    1  0.4441180E+000  0.1932205E+03  0.7546771E-02  0.1155588E+00
         21   -1    0    0  503  502  0.00000000000E+00  0.00000000000E+00  0.79696899509E+03  0.79696899509E+03  0.00000000000E+00 0. -1.
         21   -1    0    0  501  503 -0.00000000000E+00 -0.00000000000E+00 -0.76887160922E+02  0.76887160922E+02  0.00000000000E+00 0.  1.
          6    1    1    2  501    0  0.34593449075E+02  0.78793764545E+02  0.86924848530E+02  0.21187282351E+03  0.17300000000E+03 0.  1.
         -6    1    1    2    0  502 -0.34593449075E+02 -0.78793764545E+02  0.63315698564E+03  0.66198333251E+03  0.17300000000E+03 0. -1.
<mgrwt>
<rscale>  2 0.19322051E+03</rscale>
<asrwt>0</asrwt>
<pdfrwt beam="1">  1       21 0.12261061E+00 0.19322051E+03</pdfrwt>
<pdfrwt beam="2">  1       21 0.11828795E-01 0.19322051E+03</pdfrwt>
<totfact> 0.30131416E+04</totfact>
</mgrwt>
</event>
<event>
 4    1  0.4441180E+000  0.1748319E+03  0.7546771E-02  0.1172901E+00
         21   -1    0    0  503  502  0.00000000000E+00  0.00000000000E+00  0.20392527395E+03  0.20392527395E+03  0.00000000000E+00 0. -1.
         21   -1    0    0  501  503 -0.00000000000E+00 -0.00000000000E+00 -0.16267363647E+03  0.16267363647E+03  0.00000000000E+00 0. -1.
          6    1    1    2  501    0 -0.22961291966E+02 -0.10487460368E+02 -0.30759897770E+02  0.17751726413E+03  0.17300000000E+03 0. -1.
         -6    1    1    2    0  502  0.22961291966E+02  0.10487460368E+02  0.72011535252E+02  0.18908164629E+03  0.17300000000E+03 0. -1.
<mgrwt>
<rscale>  2 0.17483194E+03</rscale>
<asrwt>0</asrwt>
<pdfrwt beam="1">  1       21 0.31373119E-01 0.17483194E+03</pdfrwt>
<pdfrwt beam="2">  1       21 0.25026713E-01 0.17483194E+03</pdfrwt>
<totfact> 0.14844810E+05</totfact>
</mgrwt>
</event>
<event>
 4    1  0.4441180E+000  0.1849677E+03  0.7546771E-02  0.1163080E+00
         21   -1    0    0  501  502  0.00000000000E+00  0.00000000000E+00  0.58036467596E+03  0.58036467596E+03  0.00000000000E+00 0. -1.
         21   -1    0    0  502  503 -0.00000000000E+00 -0.00000000000E+00 -0.13745191041E+03  0.13745191041E+03  0.00000000000E+00 0. -1.
          6    1    1    2  501    0  0.31862539914E+02 -0.57173557004E+02  0.49269132990E+03  0.52626778700E+03  0.17300000000E+03 0. -1.
         -6    1    1    2    0  503 -0.31862539914E+02  0.57173557004E+02 -0.49778564351E+02  0.19154879937E+03  0.17300000000E+03 0. -1.
<mgrwt>
<rscale>  2 0.18496766E+03</rscale>
<asrwt>0</asrwt>
<pdfrwt beam="1">  1       21 0.89286872E-01 0.18496766E+03</pdfrwt>
<pdfrwt beam="2">  1       21 0.21146448E-01 0.18496766E+03</pdfrwt>
<totfact> 0.22353945E+04</totfact>
</mgrwt>
</event>
<event>
 4    1  0.4441180E+000  0.1781238E+03  0.7546771E-02  0.1169631E+00
         21   -1    0    0  501  502  0.00000000000E+00  0.00000000000E+00  0.24920702632E+02  0.24920702632E+02  0.00000000000E+00 0. -1.
         21   -1    0    0  502  503 -0.00000000000E+00 -0.00000000000E+00 -0.13372861504E+04  0.13372861504E+04  0.00000000000E+00 0. -1.
          6    1    1    2  501    0 -0.13048981255E+02  0.40358458557E+02 -0.50703620111E+03  0.53741398412E+03  0.17300000000E+03 0. -1.
         -6    1    1    2    0  503  0.13048981255E+02 -0.40358458557E+02 -0.80532924662E+03  0.82479286888E+03  0.17300000000E+03 0. -1.
<mgrwt>
<rscale>  2 0.17812378E+03</rscale>
<asrwt>0</asrwt>
<pdfrwt beam="1">  1       21 0.38339539E-02 0.17812378E+03</pdfrwt>
<pdfrwt beam="2">  1       21 0.20573635E+00 0.17812378E+03</pdfrwt>
<totfact> 0.52434669E+04</totfact>
</mgrwt>
</event>
<event>
 4    1  0.4441180E+000  0.2039299E+03  0.7546771E-02  0.1146465E+00
         21   -1    0    0  503  502  0.00000000000E+00  0.00000000000E+00  0.96716875589E+03  0.96716875589E+03  0.00000000000E+00 0. -1.
         21   -1    0    0  501  503 -0.00000000000E+00 -0.00000000000E+00 -0.10779362593E+03  0.10779362593E+03  0.00000000000E+00 0.  1.
          6    1    1    2  501    0  0.76354230713E+00  0.10797130025E+03  0.12975673877E+02  0.20434224425E+03  0.17300000000E+03 0.  1.
         -6    1    1    2    0  502 -0.76354230713E+00 -0.10797130025E+03  0.84639945609E+03  0.87062013757E+03  0.17300000000E+03 0. -1.
<mgrwt>
<rscale>  2 0.20392985E+03</rscale>
<asrwt>0</asrwt>
<pdfrwt beam="1">  1       21 0.14879519E+00 0.20392985E+03</pdfrwt>
<pdfrwt beam="2">  1       21 0.16583635E-01 0.20392985E+03</pdfrwt>
<totfact> 0.98843814E+03</totfact>
</mgrwt>
</event>
<event>
 4    1  0.4441180E+000  0.1830429E+03  0.7546771E-02  0.1164890E+00
         21   -1    0    0  503  502  0.00000000000E+00  0.00000000000E+00  0.32205026850E+03  0.32205026850E+03  0.00000000000E+00 0. -1.
         21   -1    0    0  501  503 -0.00000000000E+00 -0.00000000000E+00 -0.13312364518E+03  0.13312364518E+03  0.00000000000E+00 0. -1.
          6    1    1    2  501    0 -0.74689557745E+01  0.59328788609E+02 -0.11920878824E+02  0.18343063487E+03  0.17300000000E+03 0. -1.
         -6    1    1    2    0  502  0.74689557745E+01 -0.59328788609E+02  0.20084750214E+03  0.27174327880E+03  0.17300000000E+03 0. -1.
<mgrwt>
<rscale>  2 0.18304287E+03</rscale>
<asrwt>0</asrwt>
<pdfrwt beam="1">  1       21 0.49546195E-01 0.18304287E+03</pdfrwt>
<pdfrwt beam="2">  1       21 0.20480561E-01 0.18304287E+03</pdfrwt>
<totfact> 0.86077903E+04</totfact>
</mgrwt>
</event>
<event>
 4    1  0.4441180E+000  0.1866575E+03  0.7546771E-02  0.1161511E+00
         21   -1    0    0  503  502  0.00000000000E+00  0.00000000000E+00  0.12234740876E+03  0.12234740876E+03  0.00000000000E+00 0. -1.
         21   -1    0    0  501  503 -0.00000000000E+00 -0.00000000000E+00 -0.29616199222E+03  0.29616199222E+03  0.00000000000E+00 0.  1.
          6    1    1    2  501    0  0.57706346328E+02  0.39774291824E+02 -0.12794544346E+03  0.22629859301E+03  0.17300000000E+03 0.  1.
         -6    1    1    2    0  502 -0.57706346328E+02 -0.39774291824E+02 -0.45869140008E+02  0.19221080797E+03  0.17300000000E+03 0. -1.
<mgrwt>
<rscale>  2 0.18665748E+03</rscale>
<asrwt>0</asrwt>
<pdfrwt beam="1">  1       21 0.18822679E-01 0.18665748E+03</pdfrwt>
<pdfrwt beam="2">  1       21 0.45563383E-01 0.18665748E+03</pdfrwt>
<totfact> 0.11962993E+05</totfact>
</mgrwt>
</event>
<event>
 4    1  0.4441180E+000  0.1836893E+03  0.7546771E-02  0.1164280E+00
         21   -1    0    0  501  502  0.00000000000E+00  0.00000000000E+00  0.46737659159E+02  0.46737659159E+02  0.00000000000E+00 0. -1.
         21   -1    0    0  502  503 -0.00000000000E+00 -0.00000000000E+00 -0.89038848599E+03  0.89038848599E+03  0.00000000000E+00 0. -1.
          6    1    1    2  501    0 -0.40032164988E+02  0.47012761731E+02 -0.21802166443E+03  0.28508809193E+03  0.17300000000E+03 0. -1.
         -6    1    1    2    0  503  0.40032164988E+02 -0.47012761731E+02 -0.62562916239E+03  0.65203805321E+03  0.17300000000E+03 0. -1.
<mgrwt>
<rscale>  2 0.18368934E+03</rscale>
<asrwt>0</asrwt>
<pdfrwt beam="1">  1       21 0.71904099E-02 0.18368934E+03</pdfrwt>
<pdfrwt beam="2">  1       21 0.13698283E+00 0.18368934E+03</pdfrwt>
<totfact> 0.54916980E+04</totfact>
</mgrwt>
</event>
<event>
 4    1  0.4441180E+000  0.2037919E+03  0.7546771E-02  0.1146579E+00
         21   -1    0    0  503  502  0.00000000000E+00  0.00000000000E+00  0.69468205354E+03  0.69468205354E+03  0.00000000000E+00 0.  1.
         21   -1    0    0  501  503 -0.00000000000E+00 -0.00000000000E+00 -0.71484948357E+02  0.71484948357E+02  0.00000000000E+00 0.  1.
          6    1    1    2  501    0  0.10655685530E+03  0.15740320359E+02  0.46658367746E+03  0.50914776752E+03  0.17300000000E+03 0.  1.
         -6    1    1    2    0  502 -0.10655685530E+03 -0.15740320359E+02  0.15661342771E+03  0.25701923437E+03  0.17300000000E+03 0.  1.
<mgrwt>
<rscale>  2 0.20379186E+03</rscale>
<asrwt>0</asrwt>
<pdfrwt beam="1">  1       21 0.10687416E+00 0.20379186E+03</pdfrwt>
<pdfrwt beam="2">  1       21 0.10997685E-01 0.20379186E+03</pdfrwt>
<totfact> 0.47724094E+04</totfact>
</mgrwt>
</event>
<event>
 4    1  0.4441180E+000  0.2226117E+03  0.7546771E-02  0.1131951E+00
         21   -1    0    0  503  502  0.00000000000E+00  0.00000000000E+00  0.37187993659E+03  0.37187993659E+03  0.00000000000E+00 0.  1.
         21   -1    0    0  501  503 -0.00000000000E+00 -0.00000000000E+00 -0.19201472065E+03  0.19201472065E+03  0.00000000000E+00 0.  1.
          6    1    1    2  501    0 -0.99683399729E+02 -0.98438867046E+02 -0.66033184278E+02  0.23219899257E+03  0.17300000000E+03 0.  1.
         -6    1    1    2    0  502  0.99683399729E+02  0.98438867046E+02  0.24589840022E+03  0.33169566466E+03  0.17300000000E+03 0.  1.
<mgrwt>
<rscale>  2 0.22261175E+03</rscale>
<asrwt>0</asrwt>
<pdfrwt beam="1">  1       21 0.57212298E-01 0.22261175E+03</pdfrwt>
<pdfrwt beam="2">  1       21 0.29540726E-01 0.22261175E+03</pdfrwt>
<totfact> 0.31007318E+04</totfact>
</mgrwt>
</event>
<event>
 4    1  0.4441180E+000  0.2728733E+03  0.7546771E-02  0.1099646E+00
         21   -1    0    0  501  502  0.00000000000E+00  0.00000000000E+00  0.22777260101E+03  0.22777260101E+03  0.00000000000E+00 0.  1.
         21   -1    0    0  502  503 -0.00000000000E+00 -0.00000000000E+00 -0.45863146794E+03  0.45863146794E+03  0.00000000000E+00 0. -1.
          6    1    1    2  501    0  0.13090635296E+03  0.16551242460E+03  0.68501872796E+02  0.28134026111E+03  0.17300000000E+03 0.  1.
         -6    1    1    2    0  503 -0.13090635296E+03 -0.16551242460E+03 -0.29936073972E+03  0.40506380785E+03  0.17300000000E+03 0.  1.
<mgrwt>
<rscale>  2 0.27287330E+03</rscale>
<asrwt>0</asrwt>
<pdfrwt beam="1">  1       21 0.35041939E-01 0.27287330E+03</pdfrwt>
<pdfrwt beam="2">  1       21 0.70558686E-01 0.27287330E+03</pdfrwt>
<totfact> 0.13662574E+04</totfact>
</mgrwt>
</event>
<event>
 4    1  0.4441180E+000  0.1946201E+03  0.7546771E-02  0.1154359E+00
         21   -1    0    0  503  502  0.00000000000E+00  0.00000000000E+00  0.10332987011E+04  0.10332987011E+04  0.00000000000E+00 0. -1.
         21   -1    0    0  501  503 -0.00000000000E+00 -0.00000000000E+00 -0.44157360379E+02  0.44157360379E+02  0.00000000000E+00 0. -1.
          6    1    1    2  501    0  0.48446802845E+02  0.74838974335E+02  0.27253245014E+03  0.33488938646E+03  0.17300000000E+03 0. -1.
         -6    1    1    2    0  502 -0.48446802845E+02 -0.74838974335E+02  0.71660889053E+03  0.74256667497E+03  0.17300000000E+03 0. -1.
<mgrwt>
<rscale>  2 0.19462005E+03</rscale>
<asrwt>0</asrwt>
<pdfrwt beam="1">  1       21 0.15896901E+00 0.19462005E+03</pdfrwt>
<pdfrwt beam="2">  1       21 0.67934408E-02 0.19462005E+03</pdfrwt>
<totfact> 0.40749552E+04</totfact>
</mgrwt>
</event>
<event>
 4    1  0.4441180E+000  0.1873780E+03  0.7546771E-02  0.1160848E+00
         21   -1    0    0  503  502  0.00000000000E+00  0.00000000000E+00  0.29877513418E+02  0.29877513418E+02  0.00000000000E+00 0.  1.
         21   -1    0    0  501  503 -0.00000000000E+00 -0.00000000000E+00 -0.14551133125E+04  0.14551133125E+04  0.00000000000E+00 0. -1.
          6    1    1    2  501    0 -0.68030617557E+02  0.23523336461E+02 -0.10383024562E+04  0.10550746433E+04  0.17300000000E+03 0. -1.
         -6    1    1    2    0  502  0.68030617557E+02 -0.23523336461E+02 -0.38693334288E+03  0.42991618266E+03  0.17300000000E+03 0.  1.
<mgrwt>
<rscale>  2 0.18737799E+03</rscale>
<asrwt>0</asrwt>
<pdfrwt beam="1">  1       21 0.45965406E-02 0.18737799E+03</pdfrwt>
<pdfrwt beam="2">  1       21 0.22386358E+00 0.18737799E+03</pdfrwt>
<totfact> 0.29667699E+04</totfact>
</mgrwt>
</event>
<event>
 4    1  0.4441180E+000  0.1744672E+03  0.7546771E-02  0.1173268E+00
         21   -1    0    0  503  502  0.00000000000E+00  0.00000000000E+00  0.88062935547E+03  0.88062935547E+03  0.00000000000E+00 0.  1.
         21   -1    0    0  501  503 -0.00000000000E+00 -0.00000000000E+00 -0.35635394511E+02  0.35635394511E+02  0.00000000000E+00 0.  1.
          6    1    1    2  501    0 -0.13966100620E+02 -0.17741449848E+02  0.34309067385E+03  0.38490261300E+03  0.17300000000E+03 0. -1.
         -6    1    1    2    0  502  0.13966100620E+02  0.17741449848E+02  0.50190328711E+03  0.53136213698E+03  0.17300000000E+03 0. -1.
<mgrwt>
<rscale>  2 0.17446722E+03</rscale>
<asrwt>0</asrwt>
<pdfrwt beam="1">  1       21 0.13548142E+00 0.17446722E+03</pdfrwt>
<pdfrwt beam="2">  1       21 0.54823691E-02 0.17446722E+03</pdfrwt>
<totfact> 0.90315648E+04</totfact>
</mgrwt>
</event>
<event>
 4    1  0.4441180E+000  0.1737876E+03  0.7546771E-02  0.1173955E+00
         21   -1    0    0  503  502  0.00000000000E+00  0.00000000000E+00  0.84305111173E+02  0.84305111173E+02  0.00000000000E+00 0. -1.
         21   -1    0    0  501  503 -0.00000000000E+00 -0.00000000000E+00 -0.41427882625E+03  0.41427882625E+03  0.00000000000E+00 0. -1.
          6    1    1    2  501    0 -0.13698817021E+02 -0.92454537101E+01 -0.73306668626E+02  0.18861602177E+03  0.17300000000E+03 0. -1.
         -6    1    1    2    0  502  0.13698817021E+02  0.92454537101E+01 -0.25666704645E+03  0.30996791565E+03  0.17300000000E+03 0. -1.
<mgrwt>
<rscale>  2 0.17378762E+03</rscale>
<asrwt>0</asrwt>
<pdfrwt beam="1">  1       21 0.12970017E-01 0.17378762E+03</pdfrwt>
<pdfrwt beam="2">  1       21 0.63735204E-01 0.17378762E+03</pdfrwt>
<totfact> 0.11691034E+05</totfact>
</mgrwt>
</event>
<event>
 4    1  0.4441180E+000  0.1937475E+03  0.7546771E-02  0.1155124E+00
         21   -1    0    0  501  502  0.00000000000E+00  0.00000000000E+00  0.15841915246E+04  0.15841915246E+04  0.00000000000E+00 0. -1.
         21   -1    0    0  502  503 -0.00000000000E+00 -0.00000000000E+00 -0.29588665986E+02  0.29588665986E+02  0.00000000000E+00 0. -1.
          6    1    1    2  501    0 -0.48038052034E+01  0.87097674329E+02  0.11374063249E+04  0.11537899416E+04  0.17300000000E+03 0.  1.
         -6    1    1    2    0  503  0.48038052034E+01 -0.87097674329E+02  0.41719653371E+03  0.45999024899E+03  0.17300000000E+03 0.  1.
<mgrwt>
<rscale>  2 0.19374747E+03</rscale>
<asrwt>0</asrwt>
<pdfrwt beam="1">  1       21 0.24372171E+00 0.19374747E+03</pdfrwt>
<pdfrwt beam="2">  1       21 0.45521037E-02 0.19374747E+03</pdfrwt>
<totfact> 0.22808094E+04</totfact>
</mgrwt>
</event>
<event>
 4    1  0.4441180E+000  0.2627376E+03  0.7546771E-02  0.1105509E+00
         21   -1    0    0  501  502  0.00000000000E+00  0.00000000000E+00  0.27148977630E+03  0.27148977630E+03  0.00000000000E+00 0. -1.
         21   -1    0    0  502  503 -0.00000000000E+00 -0.00000000000E+00 -0.28054571735E+03  0.28054571735E+03  0.00000000000E+00 0. -1.
          6    1    1    2  501    0 -0.17839168054E+02  0.19693608277E+03  0.79947812137E+02  0.27463195240E+03  0.17300000000E+03 0. -1.
         -6    1    1    2    0  503  0.17839168054E+02 -0.19693608277E+03 -0.89003753187E+02  0.27740354124E+03  0.17300000000E+03 0. -1.
<mgrwt>
<rscale>  2 0.26273762E+03</rscale>
<asrwt>0</asrwt>
<pdfrwt beam="1">  1       21 0.41767658E-01 0.26273762E+03</pdfrwt>
<pdfrwt beam="2">  1       21 0.43160880E-01 0.26273762E+03</pdfrwt>
<totfact> 0.27508166E+04</totfact>
</mgrwt>
</event>
<event>
 4    1  0.4441180E+000  0.2024629E+03  0.7546771E-02  0.1147678E+00
         21   -1    0    0  503  502  0.00000000000E+00  0.00000000000E+00  0.68093563702E+02  0.68093563702E+02  0.00000000000E+00 0. -1.
         21   -1    0    0  501  503 -0.00000000000E+00 -0.00000000000E+00 -0.61233484531E+03  0.61233484531E+03  0.00000000000E+00 0. -1.
          6    1    1    2  501    0  0.60187842936E+02  0.86253375027E+02 -0.31635404833E+03  0.37559433573E+03  0.17300000000E+03 0. -1.
         -6    1    1    2    0  502 -0.60187842936E+02 -0.86253375027E+02 -0.22788723328E+03  0.30483407328E+03  0.17300000000E+03 0. -1.
<mgrwt>
<rscale>  2 0.20246289E+03</rscale>
<asrwt>0</asrwt>
<pdfrwt beam="1">  1       21 0.10475932E-01 0.20246289E+03</pdfrwt>
<pdfrwt beam="2">  1       21 0.94205364E-01 0.20246289E+03</pdfrwt>
<totfact> 0.70281302E+04</totfact>
</mgrwt>
</event>
<event>
 4    1  0.4441180E+000  0.1738768E+03  0.7546771E-02  0.1173864E+00
         21   -1    0    0  501  502  0.00000000000E+00  0.00000000000E+00  0.15880071943E+03  0.15880071943E+03  0.00000000000E+00 0.  1.
         21   -1    0    0  502  503 -0.00000000000E+00 -0.00000000000E+00 -0.45498483643E+03  0.45498483643E+03  0.00000000000E+00 0.  1.
          6    1    1    2  501    0  0.16846319015E+02 -0.45085646577E+01  0.85944532984E+02  0.19395769737E+03  0.17300000000E+03 0.  1.
         -6    1    1    2    0  503 -0.16846319015E+02  0.45085646577E+01 -0.38212864999E+03  0.41982785848E+03  0.17300000000E+03 0.  1.
<mgrwt>
<rscale>  2 0.17387675E+03</rscale>
<asrwt>0</asrwt>
<pdfrwt beam="1">  1       21 0.24430880E-01 0.17387675E+03</pdfrwt>
<pdfrwt beam="2">  1       21 0.69997666E-01 0.17387675E+03</pdfrwt>
<totfact> 0.29635187E+04</totfact>
</mgrwt>
</event>
<event>
 4    1  0.4441180E+000  0.2320700E+03  0.7546771E-02  0.1125191E+00
         21   -1    0    0  503  502  0.00000000000E+00  0.00000000000E+00  0.57769465990E+03  0.57769465990E+03  0.00000000000E+00 0. -1.
         21   -1    0    0  501  503 -0.00000000000E+00 -0.00000000000E+00 -0.94057257936E+02  0.94057257936E+02  0.00000000000E+00 0.  1.
          6    1    1    2  501    0 -0.30621551786E+01 -0.15465473253E+03  0.21025305817E+03  0.31314982286E+03  0.17300000000E+03 0. -1.
         -6    1    1    2    0  502  0.30621551786E+01  0.15465473253E+03  0.27338434380E+03  0.35860209498E+03  0.17300000000E+03 0. -1.
<mgrwt>
<rscale>  2 0.23206995E+03</rscale>
<asrwt>0</asrwt>
<pdfrwt beam="1">  1       21 0.88876099E-01 0.23206995E+03</pdfrwt>
<pdfrwt beam="2">  1       21 0.14470348E-01 0.23206995E+03</pdfrwt>
<totfact> 0.44423653E+04</totfact>
</mgrwt>
</event>
<event>
 4    1  0.4441180E+000  0.1747872E+03  0.7546771E-02  0.1172945E+00
         21   -1    0    0  501  502  0.00000000000E+00  0.00000000000E+00  0.18646393787E+03  0.18646393787E+03  0.00000000000E+00 0.  1.
         21   -1    0    0  502  503 -0.00000000000E+00 -0.00000000000E+00 -0.16608320115E+03  0.16608320115E+03  0.00000000000E+00 0.  1.
          6    1    1    2  501    0 -0.11771234123E+02 -0.21977702346E+02 -0.10287615016E+02  0.17508973807E+03  0.17300000000E+03 0.  1.
         -6    1    1    2    0  503  0.11771234123E+02  0.21977702346E+02  0.30668351736E+02  0.17745740095E+03  0.17300000000E+03 0.  1.
<mgrwt>
<rscale>  2 0.17478725E+03</rscale>
<asrwt>0</asrwt>
<pdfrwt beam="1">  1       21 0.28686760E-01 0.17478725E+03</pdfrwt>
<pdfrwt beam="2">  1       21 0.25551262E-01 0.17478725E+03</pdfrwt>
<totfact> 0.16982009E+05</totfact>
</mgrwt>
</event>
<event>
 4    1  0.4441180E+000  0.2233316E+03  0.7546771E-02  0.1131423E+00
         21   -1    0    0  503  502  0.00000000000E+00  0.00000000000E+00  0.56185032923E+02  0.56185032923E+02  0.00000000000E+00 0. -1.
         21   -1    0    0  501  503 -0.00000000000E+00 -0.00000000000E+00 -0.92634431241E+03  0.92634431241E+03  0.00000000000E+00 0. -1.
          6    1    1    2  501    0  0.12152452502E+03 -0.71970634147E+02 -0.33477542714E+03  0.40243206753E+03  0.17300000000E+03 0. -1.
         -6    1    1    2    0  502 -0.12152452502E+03  0.71970634147E+02 -0.53538385234E+03  0.58009727780E+03  0.17300000000E+03 0. -1.
<mgrwt>
<rscale>  2 0.22333155E+03</rscale>
<asrwt>0</asrwt>
<pdfrwt beam="1">  1       21 0.86438508E-02 0.22333155E+03</pdfrwt>
<pdfrwt beam="2">  1       21 0.14251452E+00 0.22333155E+03</pdfrwt>
<totfact> 0.35196062E+04</totfact>
</mgrwt>
</event>
<event>
 4    1  0.4441180E+000  0.2130067E+03  0.7546771E-02  0.1139207E+00
         21   -1    0    0  503  502  0.00000000000E+00  0.00000000000E+00  0.14195483956E+03  0.14195483956E+03  0.00000000000E+00 0. -1.
         21   -1    0    0  501  503 -0.00000000000E+00 -0.00000000000E+00 -0.38549717481E+03  0.38549717481E+03  0.00000000000E+00 0. -1.
          6    1    1    2  501    0 -0.86064188637E+02 -0.89642756862E+02 -0.23079055693E+03  0.31406392597E+03  0.17300000000E+03 0. -1.
         -6    1    1    2    0  502  0.86064188637E+02  0.89642756862E+02 -0.12751778310E+02  0.21338808841E+03  0.17300000000E+03 0. -1.
<mgrwt>
<rscale>  2 0.21300673E+03</rscale>
<asrwt>0</asrwt>
<pdfrwt beam="1">  1       21 0.21839207E-01 0.21300673E+03</pdfrwt>
<pdfrwt beam="2">  1       21 0.59307256E-01 0.21300673E+03</pdfrwt>
<totfact> 0.51488106E+04</totfact>
</mgrwt>
</event>
<event>
 4    1  0.4441180E+000  0.1935280E+03  0.7546771E-02  0.1155317E+00
         21   -1    0    0  501  502  0.00000000000E+00  0.00000000000E+00  0.10171914131E+03  0.10171914131E+03  0.00000000000E+00 0.  1.
         21   -1    0    0  502  503 -0.00000000000E+00 -0.00000000000E+00 -0.11313706369E+04  0.11313706369E+04  0.00000000000E+00 0.  1.
          6    1    1    2  501    0 -0.48392076354E+01  0.86606325314E+02 -0.84500705698E+01  0.19371235688E+03  0.17300000000E+03 0.  1.
         -6    1    1    2    0  503  0.48392076354E+01 -0.86606325314E+02 -0.10212014250E+04  0.10393774214E+04  0.17300000000E+03 0.  1.
<mgrwt>
<rscale>  2 0.19352797E+03</rscale>
<asrwt>0</asrwt>
<pdfrwt beam="1">  1       21 0.15649099E-01 0.19352797E+03</pdfrwt>
<pdfrwt beam="2">  1       21 0.17405702E+00 0.19352797E+03</pdfrwt>
<totfact> 0.72540518E+03</totfact>
</mgrwt>
</event>
<event>
 4    1  0.4441180E+000  0.2569323E+03  0.7546771E-02  0.1109000E+00
         21   -1    0    0  501  502  0.00000000000E+00  0.00000000000E+00  0.15477720275E+04  0.15477720275E+04  0.00000000000E+00 0. -1.
         21   -1    0    0  502  503 -0.00000000000E+00 -0.00000000000E+00 -0.52868560424E+02  0.52868560424E+02  0.00000000000E+00 0. -1.
          6    1    1    2  501    0 -0.18145274814E+03  0.56215008397E+02  0.10992842038E+04  0.11289109742E+04  0.17300000000E+03 0. -1.
         -6    1    1    2    0  503  0.18145274814E+03 -0.56215008397E+02  0.39561926327E+03  0.47172961370E+03  0.17300000000E+03 0. -1.
<mgrwt>
<rscale>  2 0.25693234E+03</rscale>
<asrwt>0</asrwt>
<pdfrwt beam="1">  1       21 0.23811874E+00 0.25693234E+03</pdfrwt>
<pdfrwt beam="2">  1       21 0.81336259E-02 0.25693234E+03</pdfrwt>
<totfact> 0.86417094E+03</totfact>
</mgrwt>
</event>
<event>
 4    1  0.4441180E+000  0.2184164E+03  0.7546771E-02  0.1135069E+00
         21   -1    0    0  501  502  0.00000000000E+00  0.00000000000E+00  0.45071165497E+03  0.45071165497E+03  0.00000000000E+00 0.  1.
         21   -1    0    0  502  503 -0.00000000000E+00 -0.00000000000E+00 -0.12539677275E+03  0.12539677275E+03  0.00000000000E+00 0.  1.
          6    1    1    2  501    0  0.12777192327E+03 -0.38092750294E+02  0.27639934777E+03  0.35228159397E+03  0.17300000000E+03 0.  1.
         -6    1    1    2    0  503 -0.12777192327E+03  0.38092750294E+02  0.48915534451E+02  0.22382683376E+03  0.17300000000E+03 0.  1.
<mgrwt>
<rscale>  2 0.21841640E+03</rscale>
<asrwt>0</asrwt>
<pdfrwt beam="1">  1       21 0.69340254E-01 0.21841640E+03</pdfrwt>
<pdfrwt beam="2">  1       21 0.19291811E-01 0.21841640E+03</pdfrwt>
<totfact> 0.46122125E+04</totfact>
</mgrwt>
</event>
<event>
 4    1  0.4441180E+000  0.1818435E+03  0.7546771E-02  0.1166031E+00
         21   -1    0    0  501  502  0.00000000000E+00  0.00000000000E+00  0.14564772857E+03  0.14564772857E+03  0.00000000000E+00 0. -1.
         21   -1    0    0  502  503 -0.00000000000E+00 -0.00000000000E+00 -0.25436227768E+03  0.25436227768E+03  0.00000000000E+00 0. -1.
          6    1    1    2  501    0 -0.55268225365E+02 -0.91370467264E+01  0.11199336465E+02  0.18218805530E+03  0.17300000000E+03 0. -1.
         -6    1    1    2    0  503  0.55268225365E+02  0.91370467264E+01 -0.11991388557E+03  0.21782195094E+03  0.17300000000E+03 0. -1.
<mgrwt>
<rscale>  2 0.18184351E+03</rscale>
<asrwt>0</asrwt>
<pdfrwt beam="1">  1       21 0.22407343E-01 0.18184351E+03</pdfrwt>
<pdfrwt beam="2">  1       21 0.39132658E-01 0.18184351E+03</pdfrwt>
<totfact> 0.11784436E+05</totfact>
</mgrwt>
</event>
<event>
 4    1  0.4441180E+000  0.2132206E+03  0.7546771E-02  0.1139041E+00
         21   -1    0    0  503  502  0.00000000000E+00  0.00000000000E+00  0.29913642276E+03  0.29913642276E+03  0.00000000000E+00 0.  1.
         21   -1    0    0  501  503 -0.00000000000E+00 -0.00000000000E+00 -0.19077665124E+03  0.19077665124E+03  0.00000000000E+00 0. -1.
          6    1    1    2  501    0 -0.19974427830E+02  0.12302463213E+03  0.16464323911E+03  0.26938900138E+03  0.17300000000E+03 0.  1.
         -6    1    1    2    0  502  0.19974427830E+02 -0.12302463213E+03 -0.56283467596E+02  0.22052407262E+03  0.17300000000E+03 0. -1.
<mgrwt>
<rscale>  2 0.21322063E+03</rscale>
<asrwt>0</asrwt>
<pdfrwt beam="1">  1       21 0.46020988E-01 0.21322063E+03</pdfrwt>
<pdfrwt beam="2">  1       21 0.29350254E-01 0.21322063E+03</pdfrwt>
<totfact> 0.49823283E+04</totfact>
</mgrwt>
</event>
<event>
 4    1  0.4441180E+000  0.3689979E+03  0.7546771E-02  0.1055077E+00
         21   -1    0    0  501  502  0.00000000000E+00  0.00000000000E+00  0.23992485438E+03  0.23992485438E+03  0.00000000000E+00 0. -1.
         21   -1    0    0  502  503 -0.00000000000E+00 -0.00000000000E+00 -0.57864449039E+03  0.57864449039E+03  0.00000000000E+00 0.  1.
          6    1    1    2  501    0  0.25069829459E+03  0.20828058545E+03 -0.11258176429E+03  0.38579021610E+03  0.17300000000E+03 0.  1.
         -6    1    1    2    0  503 -0.25069829459E+03 -0.20828058545E+03 -0.22613787172E+03  0.43277912867E+03  0.17300000000E+03 0. -1.
<mgrwt>
<rscale>  2 0.36899788E+03</rscale>
<asrwt>0</asrwt>
<pdfrwt beam="1">  1       21 0.36911516E-01 0.36899788E+03</pdfrwt>
<pdfrwt beam="2">  1       21 0.89022229E-01 0.36899788E+03</pdfrwt>
<totfact> 0.69383228E+03</totfact>
</mgrwt>
</event>
<event>
 4    1  0.4441180E+000  0.1867474E+03  0.7546771E-02  0.1161428E+00
         21   -1    0    0  503  502  0.00000000000E+00  0.00000000000E+00  0.71364750871E+03  0.71364750871E+03  0.00000000000E+00 0. -1.
         21   -1    0    0  501  503 -0.00000000000E+00 -0.00000000000E+00 -0.57335042948E+02  0.57335042948E+02  0.00000000000E+00 0. -1.
          6    1    1    2  501    0 -0.20344802967E+02 -0.67317707450E+02  0.47629484428E+03  0.51159687590E+03  0.17300000000E+03 0. -1.
         -6    1    1    2    0  502  0.20344802967E+02  0.67317707450E+02  0.18001762149E+03  0.25938567576E+03  0.17300000000E+03 0. -1.
<mgrwt>
<rscale>  2 0.18674738E+03</rscale>
<asrwt>0</asrwt>
<pdfrwt beam="1">  1       21 0.10979192E+00 0.18674738E+03</pdfrwt>
<pdfrwt beam="2">  1       21 0.88207763E-02 0.18674738E+03</pdfrwt>
<totfact> 0.66574367E+04</totfact>
</mgrwt>
</event>
<event>
 4    1  0.4441180E+000  0.2695271E+03  0.7546771E-02  0.1101551E+00
         21   -1    0    0  501  502  0.00000000000E+00  0.00000000000E+00  0.62940736699E+03  0.62940736699E+03  0.00000000000E+00 0. -1.
         21   -1    0    0  502  503 -0.00000000000E+00 -0.00000000000E+00 -0.13001021690E+03  0.13001021690E+03  0.00000000000E+00 0. -1.
          6    1    1    2  501    0  0.41241473462E+02 -0.20252164243E+03  0.37690940308E+03  0.46336332712E+03  0.17300000000E+03 0. -1.
         -6    1    1    2    0  503 -0.41241473462E+02  0.20252164243E+03  0.12248774701E+03  0.29605425677E+03  0.17300000000E+03 0. -1.
<mgrwt>
<rscale>  2 0.26952713E+03</rscale>
<asrwt>0</asrwt>
<pdfrwt beam="1">  1       21 0.96831901E-01 0.26952713E+03</pdfrwt>
<pdfrwt beam="2">  1       21 0.20001572E-01 0.26952713E+03</pdfrwt>
<totfact> 0.19609605E+04</totfact>
</mgrwt>
</event>
<event>
 4    1  0.4441180E+000  0.2604681E+03  0.7546771E-02  0.1106862E+00
         21   -1    0    0  501  502  0.00000000000E+00  0.00000000000E+00  0.26179382572E+03  0.26179382572E+03  0.00000000000E+00 0. -1.
         21   -1    0    0  502  503 -0.00000000000E+00 -0.00000000000E+00 -0.10658116569E+04  0.10658116569E+04  0.00000000000E+00 0.  1.
          6    1    1    2  501    0  0.13178696339E+03 -0.14334159924E+03  0.17548149226E+03  0.31406587194E+03  0.17300000000E+03 0. -1.
         -6    1    1    2    0  503 -0.13178696339E+03  0.14334159924E+03 -0.97949932346E+03  0.10135396107E+04  0.17300000000E+03 0.  1.
<mgrwt>
<rscale>  2 0.26046807E+03</rscale>
<asrwt>0</asrwt>
<pdfrwt beam="1">  1       21 0.40275973E-01 0.26046807E+03</pdfrwt>
<pdfrwt beam="2">  1       21 0.16397102E+00 0.26046807E+03</pdfrwt>
<totfact> 0.13164996E+03</totfact>
</mgrwt>
</event>
<event>
 4    1  0.4441180E+000  0.2275654E+03  0.7546771E-02  0.1128365E+00
         21   -1    0    0  501  502  0.00000000000E+00  0.00000000000E+00  0.36710290024E+03  0.36710290024E+03  0.00000000000E+00 0. -1.
         21   -1    0    0  502  503 -0.00000000000E+00 -0.00000000000E+00 -0.16311117919E+03  0.16311117919E+03  0.00000000000E+00 0.  1.
          6    1    1    2  501    0  0.44665109456E+02  0.14093266981E+03  0.19945654554E+03  0.30260354093E+03  0.17300000000E+03 0. -1.
         -6    1    1    2    0  503 -0.44665109456E+02 -0.14093266981E+03  0.45351755119E+01  0.22761053851E+03  0.17300000000E+03 0.  1.
<mgrwt>
<rscale>  2 0.22756535E+03</rscale>
<asrwt>0</asrwt>
<pdfrwt beam="1">  1       21 0.56477369E-01 0.22756535E+03</pdfrwt>
<pdfrwt beam="2">  1       21 0.25094028E-01 0.22756535E+03</pdfrwt>
<totfact> 0.43601556E+04</totfact>
</mgrwt>
</event>
<event>
 4    1  0.4441180E+000  0.2110063E+03  0.7546771E-02  0.1140772E+00
         21   -1    0    0  501  502  0.00000000000E+00  0.00000000000E+00  0.98977661548E+02  0.98977661548E+02  0.00000000000E+00 0.  1.
         21   -1    0    0  502  503 -0.00000000000E+00 -0.00000000000E+00 -0.48769610175E+03  0.48769610175E+03  0.00000000000E+00 0.  1.
          6    1    1    2  501    0 -0.11619106772E+03  0.33080063927E+02 -0.11262829330E+03  0.23918358493E+03  0.17300000000E+03 0.  1.
         -6    1    1    2    0  503  0.11619106772E+03 -0.33080063927E+02 -0.27609014690E+03  0.34749017837E+03  0.17300000000E+03 0.  1.
<mgrwt>
<rscale>  2 0.21100629E+03</rscale>
<asrwt>0</asrwt>
<pdfrwt beam="1">  1       21 0.15227333E-01 0.21100629E+03</pdfrwt>
<pdfrwt beam="2">  1       21 0.75030169E-01 0.21100629E+03</pdfrwt>
<totfact> 0.60108566E+04</totfact>
</mgrwt>
</event>
<event>
 4    1  0.4441180E+000  0.1755874E+03  0.7546771E-02  0.1172143E+00
         21   -1    0    0  501  502  0.00000000000E+00  0.00000000000E+00  0.80692119892E+03  0.80692119892E+03  0.00000000000E+00 0.  1.
         21   -1    0    0  502  503 -0.00000000000E+00 -0.00000000000E+00 -0.15274323180E+03  0.15274323180E+03  0.00000000000E+00 0.  1.
          6    1    1    2  501    0 -0.28519983929E+02 -0.94089369129E+01  0.74259545705E+03  0.76307203487E+03  0.17300000000E+03 0.  1.
         -6    1    1    2    0  503  0.28519983929E+02  0.94089369129E+01 -0.88417489936E+02  0.19659239584E+03  0.17300000000E+03 0.  1.
<mgrwt>
<rscale>  2 0.17558735E+03</rscale>
<asrwt>0</asrwt>
<pdfrwt beam="1">  1       21 0.12414172E+00 0.17558735E+03</pdfrwt>
<pdfrwt beam="2">  1       21 0.23498959E-01 0.17558735E+03</pdfrwt>
<totfact> 0.83790217E+03</totfact>
</mgrwt>
</event>
<event>
 4    1  0.4441180E+000  0.2719592E+03  0.7546771E-02  0.1100163E+00
         21   -1    0    0  501  502  0.00000000000E+00  0.00000000000E+00  0.38489100150E+03  0.38489100150E+03  0.00000000000E+00 0. -1.
         21   -1    0    0  502  503 -0.00000000000E+00 -0.00000000000E+00 -0.27207748501E+03  0.27207748501E+03  0.00000000000E+00 0. -1.
          6    1    1    2  501    0 -0.14627203537E+03  0.15045703823E+03  0.23443170198E+03  0.35905438526E+03  0.17300000000E+03 0. -1.
         -6    1    1    2    0  503  0.14627203537E+03 -0.15045703823E+03 -0.12161818549E+03  0.29791410125E+03  0.17300000000E+03 0. -1.
<mgrwt>
<rscale>  2 0.27195924E+03</rscale>
<asrwt>0</asrwt>
<pdfrwt beam="1">  1       21 0.59214000E-01 0.27195924E+03</pdfrwt>
<pdfrwt beam="2">  1       21 0.41858075E-01 0.27195924E+03</pdfrwt>
<totfact> 0.14009384E+04</totfact>
</mgrwt>
</event>
<event>
 4    1  0.4441180E+000  0.1962844E+03  0.7546771E-02  0.1152912E+00
         21   -1    0    0  501  502  0.00000000000E+00  0.00000000000E+00  0.20875140265E+03  0.20875140265E+03  0.00000000000E+00 0.  1.
         21   -1    0    0  502  503 -0.00000000000E+00 -0.00000000000E+00 -0.18591010229E+03  0.18591010229E+03  0.00000000000E+00 0.  1.
          6    1    1    2  501    0  0.65001026210E+01 -0.92500370218E+02 -0.53832369509E+01  0.19635821619E+03  0.17300000000E+03 0.  1.
         -6    1    1    2    0  503 -0.65001026210E+01  0.92500370218E+02  0.28224537313E+02  0.19830328876E+03  0.17300000000E+03 0.  1.
<mgrwt>
<rscale>  2 0.19628441E+03</rscale>
<asrwt>0</asrwt>
<pdfrwt beam="1">  1       21 0.32115600E-01 0.19628441E+03</pdfrwt>
<pdfrwt beam="2">  1       21 0.28601554E-01 0.19628441E+03</pdfrwt>
<totfact> 0.10889062E+05</totfact>
</mgrwt>
</event>
<event>
 4    1  0.4441180E+000  0.1760989E+03  0.7546771E-02  0.1171633E+00
         21   -1    0    0  501  502  0.00000000000E+00  0.00000000000E+00  0.17388649384E+04  0.17388649384E+04  0.00000000000E+00 0.  1.
         21   -1    0    0  502  503 -0.00000000000E+00 -0.00000000000E+00 -0.19445094558E+02  0.19445094558E+02  0.00000000000E+00 0.  1.
          6    1    1    2  501    0  0.16089496465E+02  0.28686946445E+02  0.60664669275E+03  0.63168902366E+03  0.17300000000E+03 0.  1.
         -6    1    1    2    0  503 -0.16089496465E+02 -0.28686946445E+02  0.11127731511E+04  0.11266210093E+04  0.17300000000E+03 0.  1.
<mgrwt>
<rscale>  2 0.17609887E+03</rscale>
<asrwt>0</asrwt>
<pdfrwt beam="1">  1       21 0.26751756E+00 0.17609887E+03</pdfrwt>
<pdfrwt beam="2">  1       21 0.29915544E-02 0.17609887E+03</pdfrwt>
<totfact> 0.33897718E+04</totfact>
</mgrwt>
</event>
<event>
 4    1  0.4441180E+000  0.2651626E+03  0.7546771E-02  0.1104081E+00
         21   -1    0    0  501  502  0.00000000000E+00  0.00000000000E+00  0.60913477580E+03  0.60913477580E+03  0.00000000000E+00 0. -1.
         21   -1    0    0  502  503 -0.00000000000E+00 -0.00000000000E+00 -0.21396003720E+03  0.21396003720E+03  0.00000000000E+00 0.  1.
          6    1    1    2  501    0 -0.17267534559E+03  0.10278828658E+03  0.47686893810E+03  0.54563283530E+03  0.17300000000E+03 0. -1.
         -6    1    1    2    0  503  0.17267534559E+03 -0.10278828658E+03 -0.81694199512E+02  0.27746197770E+03  0.17300000000E+03 0.  1.
<mgrwt>
<rscale>  2 0.26516260E+03</rscale>
<asrwt>0</asrwt>
<pdfrwt beam="1">  1       21 0.93713042E-01 0.26516260E+03</pdfrwt>
<pdfrwt beam="2">  1       21 0.32916929E-01 0.26516260E+03</pdfrwt>
<totfact> 0.81139999E+03</totfact>
</mgrwt>
</event>
<event>
 4    1  0.4441180E+000  0.1893345E+03  0.7546771E-02  0.1159063E+00
         21   -1    0    0  501  502  0.00000000000E+00  0.00000000000E+00  0.14899643749E+03  0.14899643749E+03  0.00000000000E+00 0.  1.
         21   -1    0    0  502  503 -0.00000000000E+00 -0.00000000000E+00 -0.24726447506E+03  0.24726447506E+03  0.00000000000E+00 0.  1.
          6    1    1    2  501    0 -0.87000717957E+01 -0.76438550377E+02 -0.16589950609E+02  0.19005991080E+03  0.17300000000E+03 0.  1.
         -6    1    1    2    0  503  0.87000717957E+01  0.76438550377E+02 -0.81678086954E+02  0.20620100175E+03  0.17300000000E+03 0.  1.
<mgrwt>
<rscale>  2 0.18933447E+03</rscale>
<asrwt>0</asrwt>
<pdfrwt beam="1">  1       21 0.22922529E-01 0.18933447E+03</pdfrwt>
<pdfrwt beam="2">  1       21 0.38040688E-01 0.18933447E+03</pdfrwt>
<totfact> 0.11917995E+05</totfact>
</mgrwt>
</event>
<event>
 4    1  0.4441180E+000  0.1942296E+03  0.7546771E-02  0.1154701E+00
         21   -1    0    0  501  502  0.00000000000E+00  0.00000000000E+00  0.58144565291E+02  0.58144565291E+02  0.00000000000E+00 0. -1.
         21   -1    0    0  502  503 -0.00000000000E+00 -0.00000000000E+00 -0.86921637357E+03  0.86921637357E+03  0.00000000000E+00 0. -1.
          6    1    1    2  501    0 -0.88072911483E+02 -0.62695850445E+01 -0.17205000429E+03  0.25947321521E+03  0.17300000000E+03 0. -1.
         -6    1    1    2    0  503  0.88072911483E+02  0.62695850445E+01 -0.63902180399E+03  0.66788772366E+03  0.17300000000E+03 0. -1.
<mgrwt>
<rscale>  2 0.19422962E+03</rscale>
<asrwt>0</asrwt>
<pdfrwt beam="1">  1       21 0.89453191E-02 0.19422962E+03</pdfrwt>
<pdfrwt beam="2">  1       21 0.13372558E+00 0.19422962E+03</pdfrwt>
<totfact> 0.39697667E+04</totfact>
</mgrwt>
</event>
<event>
 4    1  0.4441180E+000  0.2451206E+03  0.7546771E-02  0.1116428E+00
         21   -1    0    0  501  502  0.00000000000E+00  0.00000000000E+00  0.46852882148E+03  0.46852882148E+03  0.00000000000E+00 0.  1.
         21   -1    0    0  502  503 -0.00000000000E+00 -0.00000000000E+00 -0.16512189246E+03  0.16512189246E+03  0.00000000000E+00 0.  1.
          6    1    1    2  501    0 -0.15926825942E+03  0.69200619545E+02  0.30143890452E+03  0.38852222248E+03  0.17300000000E+03 0.  1.
         -6    1    1    2    0  503  0.15926825942E+03 -0.69200619545E+02  0.19680245033E+01  0.24512849146E+03  0.17300000000E+03 0.  1.
<mgrwt>
<rscale>  2 0.24512059E+03</rscale>
<asrwt>0</asrwt>
<pdfrwt beam="1">  1       21 0.72081357E-01 0.24512059E+03</pdfrwt>
<pdfrwt beam="2">  1       21 0.25403368E-01 0.24512059E+03</pdfrwt>
<totfact> 0.24810711E+04</totfact>
</mgrwt>
</event>
<event>
 4    1  0.4441180E+000  0.2082367E+03  0.7546771E-02  0.1142970E+00
         21   -1    0    0  501  502  0.00000000000E+00  0.00000000000E+00  0.51162894433E+03  0.51162894433E+03  0.00000000000E+00 0. -1.
         21   -1    0    0  502  503 -0.00000000000E+00 -0.00000000000E+00 -0.92196815319E+02  0.92196815319E+02  0.00000000000E+00 0. -1.
          6    1    1    2  501    0  0.11095069539E+03 -0.33518261044E+02  0.12393405174E+03  0.24232659741E+03  0.17300000000E+03 0. -1.
         -6    1    1    2    0  503 -0.11095069539E+03  0.33518261044E+02  0.29549807728E+03  0.36149916224E+03  0.17300000000E+03 0. -1.
<mgrwt>
<rscale>  2 0.20823672E+03</rscale>
<asrwt>0</asrwt>
<pdfrwt beam="1">  1       21 0.78712143E-01 0.20823672E+03</pdfrwt>
<pdfrwt beam="2">  1       21 0.14184126E-01 0.20823672E+03</pdfrwt>
<totfact> 0.61497401E+04</totfact>
</mgrwt>
</event>
<event>
 4    1  0.4441180E+000  0.1808441E+03  0.7546771E-02  0.1166989E+00
         21   -1    0    0  503  502  0.00000000000E+00  0.00000000000E+00  0.59600407405E+03  0.59600407405E+03  0.00000000000E+00 0.  1.
         21   -1    0    0  501  503 -0.00000000000E+00 -0.00000000000E+00 -0.17815906866E+03  0.17815906866E+03  0.00000000000E+00 0. -1.
          6    1    1    2  501    0  0.52034928182E+02  0.82436940028E+01 -0.11307711141E+03  0.21328625217E+03  0.17300000000E+03 0. -1.
         -6    1    1    2    0  502 -0.52034928182E+02 -0.82436940028E+01  0.53092211680E+03  0.56087689054E+03  0.17300000000E+03 0.  1.
<mgrwt>
<rscale>  2 0.18084411E+03</rscale>
<asrwt>0</asrwt>
<pdfrwt beam="1">  1       21 0.91692934E-01 0.18084411E+03</pdfrwt>
<pdfrwt beam="2">  1       21 0.27409088E-01 0.18084411E+03</pdfrwt>
<totfact> 0.12875612E+04</totfact>
</mgrwt>
</event>
<event>
 4    1  0.4441180E+000  0.1918303E+03  0.7546771E-02  0.1156821E+00
         21   -1    0    0  503  502  0.00000000000E+00  0.00000000000E+00  0.12765632652E+03  0.12765632652E+03  0.00000000000E+00 0. -1.
         21   -1    0    0  501  503 -0.00000000000E+00 -0.00000000000E+00 -0.30326367791E+03  0.30326367791E+03  0.00000000000E+00 0. -1.
          6    1    1    2  501    0 -0.43525254239E+01 -0.82770183732E+02 -0.13571997956E+03  0.23498672440E+03  0.17300000000E+03 0. -1.
         -6    1    1    2    0  502  0.43525254239E+01  0.82770183732E+02 -0.39887371822E+02  0.19593328003E+03  0.17300000000E+03 0. -1.
<mgrwt>
<rscale>  2 0.19183026E+03</rscale>
<asrwt>0</asrwt>
<pdfrwt beam="1">  1       21 0.19639435E-01 0.19183026E+03</pdfrwt>
<pdfrwt beam="2">  1       21 0.46655950E-01 0.19183026E+03</pdfrwt>
<totfact> 0.10508368E+05</totfact>
</mgrwt>
</event>
<event>
 4    1  0.4441180E+000  0.2081398E+03  0.7546771E-02  0.1143048E+00
         21   -1    0    0  503  502  0.00000000000E+00  0.00000000000E+00  0.51147075478E+03  0.51147075478E+03  0.00000000000E+00 0. -1.
         21   -1    0    0  501  503 -0.00000000000E+00 -0.00000000000E+00 -0.90917242067E+02  0.90917242067E+02  0.00000000000E+00 0. -1.
          6    1    1    2  501    0 -0.11109793601E+03 -0.32409950101E+02  0.13152101228E+03  0.24621115515E+03  0.17300000000E+03 0. -1.
         -6    1    1    2    0  502  0.11109793601E+03  0.32409950101E+02  0.28903250043E+03  0.35617684169E+03  0.17300000000E+03 0. -1.
<mgrwt>
<rscale>  2 0.20813975E+03</rscale>
<asrwt>0</asrwt>
<pdfrwt beam="1">  1       21 0.78687807E-01 0.20813975E+03</pdfrwt>
<pdfrwt beam="2">  1       21 0.13987268E-01 0.20813975E+03</pdfrwt>
<totfact> 0.63124282E+04</totfact>
</mgrwt>
</event>
<event>
 4    1  0.4441180E+000  0.1966387E+03  0.7546771E-02  0.1152606E+00
         21   -1    0    0  501  502  0.00000000000E+00  0.00000000000E+00  0.36207164232E+03  0.36207164232E+03  0.00000000000E+00 0.  1.
         21   -1    0    0  502  503 -0.00000000000E+00 -0.00000000000E+00 -0.14645800204E+03  0.14645800204E+03  0.00000000000E+00 0. -1.
          6    1    1    2  501    0 -0.51740958174E+02  0.77850133148E+02  0.24012900536E+03  0.31036866659E+03  0.17300000000E+03 0.  1.
         -6    1    1    2    0  503  0.51740958174E+02 -0.77850133148E+02 -0.24515365082E+02  0.19816097777E+03  0.17300000000E+03 0. -1.
<mgrwt>
<rscale>  2 0.19663868E+03</rscale>
<asrwt>0</asrwt>
<pdfrwt beam="1">  1       21 0.55703330E-01 0.19663868E+03</pdfrwt>
<pdfrwt beam="2">  1       21 0.22532000E-01 0.19663868E+03</pdfrwt>
<totfact> 0.55922222E+04</totfact>
</mgrwt>
</event>
<event>
 4    1  0.4441180E+000  0.1836704E+03  0.7546771E-02  0.1164297E+00
         21   -1    0    0  501  502  0.00000000000E+00  0.00000000000E+00  0.37747578677E+03  0.37747578677E+03  0.00000000000E+00 0.  1.
         21   -1    0    0  502  503 -0.00000000000E+00 -0.00000000000E+00 -0.89417345293E+02  0.89417345293E+02  0.00000000000E+00 0.  1.
          6    1    1    2  501    0  0.21385658413E+02 -0.57866095652E+02  0.13863054875E+03  0.23011575448E+03  0.17300000000E+03 0.  1.
         -6    1    1    2    0  503 -0.21385658413E+02  0.57866095652E+02  0.14942789272E+03  0.23677737758E+03  0.17300000000E+03 0.  1.
<mgrwt>
<rscale>  2 0.18367044E+03</rscale>
<asrwt>0</asrwt>
<pdfrwt beam="1">  1       21 0.58073197E-01 0.18367044E+03</pdfrwt>
<pdfrwt beam="2">  1       21 0.13756515E-01 0.18367044E+03</pdfrwt>
<totfact> 0.12794283E+05</totfact>
</mgrwt>
</event>
<event>
 4    1  0.4441180E+000  0.1735342E+03  0.7546771E-02  0.1174212E+00
         21   -1    0    0  501  502  0.00000000000E+00  0.00000000000E+00  0.28799224775E+03  0.28799224775E+03  0.00000000000E+00 0. -1.
         21   -1    0    0  502  503 -0.00000000000E+00 -0.00000000000E+00 -0.11155652911E+03  0.11155652911E+03  0.00000000000E+00 0. -1.
          6    1    1    2  501    0  0.10685051170E+01 -0.13564376880E+02  0.13822755026E+03  0.22185803946E+03  0.17300000000E+03 0. -1.
         -6    1    1    2    0  503 -0.10685051170E+01  0.13564376880E+02  0.38208168383E+02  0.17769073739E+03  0.17300000000E+03 0. -1.
<mgrwt>
<rscale>  2 0.17353424E+03</rscale>
<asrwt>0</asrwt>
<pdfrwt beam="1">  1       21 0.44306499E-01 0.17353424E+03</pdfrwt>
<pdfrwt beam="2">  1       21 0.17162543E-01 0.17353424E+03</pdfrwt>
<totfact> 0.15090783E+05</totfact>
</mgrwt>
</event>
<event>
 4    1  0.4441180E+000  0.1993982E+03  0.7546771E-02  0.1150248E+00
         21   -1    0    0  503  502  0.00000000000E+00  0.00000000000E+00  0.15343366573E+04  0.15343366573E+04  0.00000000000E+00 0.  1.
         21   -1    0    0  501  503 -0.00000000000E+00 -0.00000000000E+00 -0.26042631197E+02  0.26042631197E+02  0.00000000000E+00 0. -1.
          6    1    1    2  501    0 -0.98914360258E+02 -0.68268536360E+01  0.69915679452E+03  0.72703499222E+03  0.17300000000E+03 0. -1.
         -6    1    1    2    0  502  0.98914360258E+02  0.68268536360E+01  0.80913723156E+03  0.83334429625E+03  0.17300000000E+03 0.  1.
<mgrwt>
<rscale>  2 0.19939824E+03</rscale>
<asrwt>0</asrwt>
<pdfrwt beam="1">  1       21 0.23605172E+00 0.19939824E+03</pdfrwt>
<pdfrwt beam="2">  1       21 0.40065599E-02 0.19939824E+03</pdfrwt>
<totfact> 0.31264407E+04</totfact>
</mgrwt>
</event>
<event>
 4    1  0.4441180E+000  0.1964362E+03  0.7546771E-02  0.1152781E+00
         21   -1    0    0  503  502  0.00000000000E+00  0.00000000000E+00  0.55287756620E+03  0.55287756620E+03  0.00000000000E+00 0. -1.
         21   -1    0    0  501  503 -0.00000000000E+00 -0.00000000000E+00 -0.13144037098E+03  0.13144037098E+03  0.00000000000E+00 0. -1.
          6    1    1    2  501    0  0.91758400084E+02  0.15446404188E+02 -0.23606859705E+02  0.19784963789E+03  0.17300000000E+03 0. -1.
         -6    1    1    2    0  502 -0.91758400084E+02 -0.15446404188E+02  0.44504405492E+03  0.48646829928E+03  0.17300000000E+03 0. -1.
<mgrwt>
<rscale>  2 0.19643624E+03</rscale>
<asrwt>0</asrwt>
<pdfrwt beam="1">  1       21 0.85058086E-01 0.19643624E+03</pdfrwt>
<pdfrwt beam="2">  1       21 0.20221596E-01 0.19643624E+03</pdfrwt>
<totfact> 0.26994916E+04</totfact>
</mgrwt>
</event>
<event>
 4    1  0.4441180E+000  0.1949078E+03  0.7546771E-02  0.1154108E+00
         21   -1    0    0  501  502  0.00000000000E+00  0.00000000000E+00  0.20624481834E+03  0.20624481834E+03  0.00000000000E+00 0.  1.
         21   -1    0    0  502  503 -0.00000000000E+00 -0.00000000000E+00 -0.21168759416E+03  0.21168759416E+03  0.00000000000E+00 0. -1.
          6    1    1    2  501    0 -0.59714796475E+02  0.67038754184E+02  0.72587175973E+02  0.20798545525E+03  0.17300000000E+03 0.  1.
         -6    1    1    2    0  503  0.59714796475E+02 -0.67038754184E+02 -0.78029951788E+02  0.20994695725E+03  0.17300000000E+03 0. -1.
<mgrwt>
<rscale>  2 0.19490780E+03</rscale>
<asrwt>0</asrwt>
<pdfrwt beam="1">  1       21 0.31729972E-01 0.19490780E+03</pdfrwt>
<pdfrwt beam="2">  1       21 0.32567322E-01 0.19490780E+03</pdfrwt>
<totfact> 0.86571327E+04</totfact>
</mgrwt>
</event>
<event>
 4    1  0.4441180E+000  0.1854053E+03  0.7546771E-02  0.1162672E+00
         21   -1    0    0  501  502  0.00000000000E+00  0.00000000000E+00  0.44223643611E+02  0.44223643611E+02  0.00000000000E+00 0.  1.
         21   -1    0    0  502  503 -0.00000000000E+00 -0.00000000000E+00 -0.78795882863E+03  0.78795882863E+03  0.00000000000E+00 0.  1.
          6    1    1    2  501    0 -0.65955752665E+02 -0.97968546250E+01 -0.42025638518E+03  0.45933709730E+03  0.17300000000E+03 0.  1.
         -6    1    1    2    0  503  0.65955752665E+02  0.97968546250E+01 -0.32347879984E+03  0.37284537494E+03  0.17300000000E+03 0.  1.
<mgrwt>
<rscale>  2 0.18540534E+03</rscale>
<asrwt>0</asrwt>
<pdfrwt beam="1">  1       21 0.68036381E-02 0.18540534E+03</pdfrwt>
<pdfrwt beam="2">  1       21 0.12122442E+00 0.18540534E+03</pdfrwt>
<totfact> 0.82086080E+04</totfact>
</mgrwt>
</event>
<event>
 4    1  0.4441180E+000  0.3548590E+03  0.7546771E-02  0.1060638E+00
         21   -1    0    0  501  502  0.00000000000E+00  0.00000000000E+00  0.84099262027E+03  0.84099262027E+03  0.00000000000E+00 0.  1.
         21   -1    0    0  502  503 -0.00000000000E+00 -0.00000000000E+00 -0.32480033903E+03  0.32480033903E+03  0.00000000000E+00 0. -1.
          6    1    1    2  501    0  0.59402878192E+02  0.30408423352E+03  0.68603814135E+03  0.77238154716E+03  0.17300000000E+03 0.  1.
         -6    1    1    2    0  503 -0.59402878192E+02 -0.30408423352E+03 -0.16984586011E+03  0.39341141214E+03  0.17300000000E+03 0. -1.
<mgrwt>
<rscale>  2 0.35485902E+03</rscale>
<asrwt>0</asrwt>
<pdfrwt beam="1">  1       21 0.12938348E+00 0.35485902E+03</pdfrwt>
<pdfrwt beam="2">  1       21 0.49969283E-01 0.35485902E+03</pdfrwt>
<totfact> 0.14880755E+03</totfact>
</mgrwt>
</event>
<event>
 4    1  0.4441180E+000  0.2249217E+03  0.7546771E-02  0.1130266E+00
         21   -1    0    0  503  502  0.00000000000E+00  0.00000000000E+00  0.73588759344E+03  0.73588759344E+03  0.00000000000E+00 0. -1.
         21   -1    0    0  501  503 -0.00000000000E+00 -0.00000000000E+00 -0.84044367948E+02  0.84044367948E+02  0.00000000000E+00 0. -1.
          6    1    1    2  501    0  0.14278092625E+03 -0.16563764780E+02  0.15101432314E+03  0.27091525796E+03  0.17300000000E+03 0. -1.
         -6    1    1    2    0  502 -0.14278092625E+03  0.16563764780E+02  0.50082890235E+03  0.54901670342E+03  0.17300000000E+03 0. -1.
<mgrwt>
<rscale>  2 0.22492166E+03</rscale>
<asrwt>0</asrwt>
<pdfrwt beam="1">  1       21 0.11321347E+00 0.22492166E+03</pdfrwt>
<pdfrwt beam="2">  1       21 0.12929903E-01 0.22492166E+03</pdfrwt>
<totfact> 0.30702430E+04</totfact>
</mgrwt>
</event>
<event>
 4    1  0.4441180E+000  0.2134735E+03  0.7546771E-02  0.1138845E+00
         21   -1    0    0  503  502  0.00000000000E+00  0.00000000000E+00  0.90426843682E+02  0.90426843682E+02  0.00000000000E+00 0. -1.
         21   -1    0    0  501  503 -0.00000000000E+00 -0.00000000000E+00 -0.57358327220E+03  0.57358327220E+03  0.00000000000E+00 0.  1.
          6    1    1    2  501    0 -0.10947052686E+03 -0.60482465888E+02 -0.12590203671E+03  0.24783512216E+03  0.17300000000E+03 0. -1.
         -6    1    1    2    0  502  0.10947052686E+03  0.60482465888E+02 -0.35725439180E+03  0.41617499371E+03  0.17300000000E+03 0.  1.
<mgrwt>
<rscale>  2 0.21347348E+03</rscale>
<asrwt>0</asrwt>
<pdfrwt beam="1">  1       21 0.13911822E-01 0.21347348E+03</pdfrwt>
<pdfrwt beam="2">  1       21 0.88243580E-01 0.21347348E+03</pdfrwt>
<totfact> 0.48940354E+04</totfact>
</mgrwt>
</event>
<event>
 4    1  0.4441180E+000  0.2216787E+03  0.7546771E-02  0.1132638E+00
         21   -1    0    0  501  502  0.00000000000E+00  0.00000000000E+00  0.17818054601E+03  0.17818054601E+03  0.00000000000E+00 0.  1.
         21   -1    0    0  502  503 -0.00000000000E+00 -0.00000000000E+00 -0.32429794272E+03  0.32429794272E+03  0.00000000000E+00 0.  1.
          6    1    1    2  501    0 -0.38110462975E+02 -0.13326671868E+03  0.24103282507E+02  0.22298518768E+03  0.17300000000E+03 0.  1.
         -6    1    1    2    0  503  0.38110462975E+02  0.13326671868E+03 -0.17022067921E+03  0.27949330104E+03  0.17300000000E+03 0.  1.
<mgrwt>
<rscale>  2 0.22167865E+03</rscale>
<asrwt>0</asrwt>
<pdfrwt beam="1">  1       21 0.27412392E-01 0.22167865E+03</pdfrwt>
<pdfrwt beam="2">  1       21 0.49891990E-01 0.22167865E+03</pdfrwt>
<totfact> 0.47915335E+04</totfact>
</mgrwt>
</event>
<event>
 4    1  0.4441180E+000  0.1774308E+03  0.7546771E-02  0.1170313E+00
         21   -1    0    0  501  502  0.00000000000E+00  0.00000000000E+00  0.95864606959E+03  0.95864606959E+03  0.00000000000E+00 0. -1.
         21   -1    0    0  502  503 -0.00000000000E+00 -0.00000000000E+00 -0.49786348626E+02  0.49786348626E+02  0.00000000000E+00 0. -1.
          6    1    1    2  501    0  0.25700926719E+01 -0.39320361642E+02  0.74860295612E+03  0.76934262987E+03  0.17300000000E+03 0. -1.
         -6    1    1    2    0  503 -0.25700926719E+01  0.39320361642E+02  0.16025676484E+03  0.23908978835E+03  0.17300000000E+03 0. -1.
<mgrwt>
<rscale>  2 0.17743082E+03</rscale>
<asrwt>0</asrwt>
<pdfrwt beam="1">  1       21 0.14748400E+00 0.17743082E+03</pdfrwt>
<pdfrwt beam="2">  1       21 0.76594389E-02 0.17743082E+03</pdfrwt>
<totfact> 0.40806795E+04</totfact>
</mgrwt>
</event>
<event>
 4    1  0.4441180E+000  0.1836067E+03  0.7546771E-02  0.1164357E+00
         21   -1    0    0  501  502  0.00000000000E+00  0.00000000000E+00  0.36156743500E+03  0.36156743500E+03  0.00000000000E+00 0. -1.
         21   -1    0    0  502  503 -0.00000000000E+00 -0.00000000000E+00 -0.98788032645E+02  0.98788032645E+02  0.00000000000E+00 0. -1.
          6    1    1    2  501    0  0.31740218641E+02 -0.52677928072E+02  0.18595345454E+03  0.26132373187E+03  0.17300000000E+03 0.  1.
         -6    1    1    2    0  503 -0.31740218641E+02  0.52677928072E+02  0.76825947814E+02  0.19903173577E+03  0.17300000000E+03 0.  1.
<mgrwt>
<rscale>  2 0.18360666E+03</rscale>
<asrwt>0</asrwt>
<pdfrwt beam="1">  1       21 0.55625758E-01 0.18360666E+03</pdfrwt>
<pdfrwt beam="2">  1       21 0.15198159E-01 0.18360666E+03</pdfrwt>
<totfact> 0.11702053E+05</totfact>
</mgrwt>
</event>
<event>
 4    1  0.4441180E+000  0.2253291E+03  0.7546771E-02  0.1129971E+00
         21   -1    0    0  503  502  0.00000000000E+00  0.00000000000E+00  0.30101395162E+03  0.30101395162E+03  0.00000000000E+00 0. -1.
         21   -1    0    0  501  503 -0.00000000000E+00 -0.00000000000E+00 -0.16892181892E+03  0.16892181892E+03  0.00000000000E+00 0.  1.
          6    1    1    2  501    0  0.96758605611E+02  0.10715396173E+03  0.75047555317E+02  0.23749807333E+03  0.17300000000E+03 0. -1.
         -6    1    1    2    0  502 -0.96758605611E+02 -0.10715396173E+03  0.57044577387E+02  0.23243769721E+03  0.17300000000E+03 0.  1.
<mgrwt>
<rscale>  2 0.22532909E+03</rscale>
<asrwt>0</asrwt>
<pdfrwt beam="1">  1       21 0.46309839E-01 0.22532909E+03</pdfrwt>
<pdfrwt beam="2">  1       21 0.25987972E-01 0.22532909E+03</pdfrwt>
<totfact> 0.61920235E+04</totfact>
</mgrwt>
</event>
<event>
 4    1  0.4441180E+000  0.1837325E+03  0.7546771E-02  0.1164239E+00
         21   -1    0    0  503  502  0.00000000000E+00  0.00000000000E+00  0.21249417430E+03  0.21249417430E+03  0.00000000000E+00 0.  1.
         21   -1    0    0  501  503 -0.00000000000E+00 -0.00000000000E+00 -0.20971903375E+03  0.20971903375E+03  0.00000000000E+00 0.  1.
          6    1    1    2  501    0 -0.44629076323E+02 -0.42858891505E+02 -0.10256867417E+03  0.21042331609E+03  0.17300000000E+03 0.  1.
         -6    1    1    2    0  502  0.44629076323E+02  0.42858891505E+02  0.10534381472E+03  0.21178989196E+03  0.17300000000E+03 0.  1.
<mgrwt>
<rscale>  2 0.18373252E+03</rscale>
<asrwt>0</asrwt>
<pdfrwt beam="1">  1       21 0.32691411E-01 0.18373252E+03</pdfrwt>
<pdfrwt beam="2">  1       21 0.32264467E-01 0.18373252E+03</pdfrwt>
<totfact> 0.83523400E+04</totfact>
</mgrwt>
</event>
<event>
 4    1  0.4441180E+000  0.2510682E+03  0.7546771E-02  0.1112632E+00
         21   -1    0    0  501  502  0.00000000000E+00  0.00000000000E+00  0.10619768792E+04  0.10619768792E+04  0.00000000000E+00 0.  1.
         21   -1    0    0  502  503 -0.00000000000E+00 -0.00000000000E+00 -0.13682891595E+03  0.13682891595E+03  0.00000000000E+00 0.  1.
          6    1    1    2  501    0  0.12856214963E+02  0.18149639015E+03  0.91360194403E+03  0.94747228669E+03  0.17300000000E+03 0.  1.
         -6    1    1    2    0  503 -0.12856214963E+02 -0.18149639015E+03  0.11546019178E+02  0.25133350843E+03  0.17300000000E+03 0.  1.
<mgrwt>
<rscale>  2 0.25106816E+03</rscale>
<asrwt>0</asrwt>
<pdfrwt beam="1">  1       21 0.16338105E+00 0.25106816E+03</pdfrwt>
<pdfrwt beam="2">  1       21 0.21050603E-01 0.25106816E+03</pdfrwt>
<totfact> 0.47670238E+03</totfact>
</mgrwt>
</event>
<event>
 4    1  0.4441180E+000  0.2649909E+03  0.7546771E-02  0.1104181E+00
         21   -1    0    0  503  502  0.00000000000E+00  0.00000000000E+00  0.33730975418E+02  0.33730975418E+02  0.00000000000E+00 0. -1.
         21   -1    0    0  501  503 -0.00000000000E+00 -0.00000000000E+00 -0.20886713461E+04  0.20886713461E+04  0.00000000000E+00 0. -1.
          6    1    1    2  501    0 -0.13944924814E+03  0.14437820124E+03 -0.96647351264E+03  0.10021433073E+04  0.17300000000E+03 0. -1.
         -6    1    1    2    0  502  0.13944924814E+03 -0.14437820124E+03 -0.10884668580E+04  0.11202590142E+04  0.17300000000E+03 0. -1.
<mgrwt>
<rscale>  2 0.26499086E+03</rscale>
<asrwt>0</asrwt>
<pdfrwt beam="1">  1       21 0.51893799E-02 0.26499086E+03</pdfrwt>
<pdfrwt beam="2">  1       21 0.32133411E+00 0.26499086E+03</pdfrwt>
<totfact> 0.60352092E+03</totfact>
</mgrwt>
</event>
<event>
 4    1  0.4441180E+000  0.1791493E+03  0.7546771E-02  0.1168629E+00
         21   -1    0    0  503  502  0.00000000000E+00  0.00000000000E+00  0.50640880619E+02  0.50640880619E+02  0.00000000000E+00 0. -1.
         21   -1    0    0  501  503 -0.00000000000E+00 -0.00000000000E+00 -0.81819965772E+03  0.81819965772E+03  0.00000000000E+00 0. -1.
          6    1    1    2  501    0  0.21132989476E+02 -0.41459227664E+02 -0.59003247973E+03  0.61663019545E+03  0.17300000000E+03 0. -1.
         -6    1    1    2    0  502 -0.21132989476E+02  0.41459227664E+02 -0.17752629737E+03  0.25221034289E+03  0.17300000000E+03 0. -1.
<mgrwt>
<rscale>  2 0.17914930E+03</rscale>
<asrwt>0</asrwt>
<pdfrwt beam="1">  1       21 0.77909048E-02 0.17914930E+03</pdfrwt>
<pdfrwt beam="2">  1       21 0.12587687E+00 0.17914930E+03</pdfrwt>
<totfact> 0.59306688E+04</totfact>
</mgrwt>
</event>
<event>
 4    1  0.4441180E+000  0.2210466E+03  0.7546771E-02  0.1133105E+00
         21   -1    0    0  501  502  0.00000000000E+00  0.00000000000E+00  0.33939991281E+02  0.33939991281E+02  0.00000000000E+00 0.  1.
         21   -1    0    0  502  503 -0.00000000000E+00 -0.00000000000E+00 -0.14760297103E+04  0.14760297103E+04  0.00000000000E+00 0.  1.
          6    1    1    2  501    0  0.13127772359E+03 -0.41216154832E+02 -0.60251241405E+03  0.64178097605E+03  0.17300000000E+03 0.  1.
         -6    1    1    2    0  503 -0.13127772359E+03  0.41216154832E+02 -0.83957730499E+03  0.86818872556E+03  0.17300000000E+03 0.  1.
<mgrwt>
<rscale>  2 0.22104663E+03</rscale>
<asrwt>0</asrwt>
<pdfrwt beam="1">  1       21 0.52215357E-02 0.22104663E+03</pdfrwt>
<pdfrwt beam="2">  1       21 0.22708156E+00 0.22104663E+03</pdfrwt>
<totfact> 0.22266890E+04</totfact>
</mgrwt>
</event>
<event>
 4    1  0.4441180E+000  0.2626177E+03  0.7546771E-02  0.1105581E+00
         21   -1    0    0  503  502  0.00000000000E+00  0.00000000000E+00  0.39304070812E+03  0.39304070812E+03  0.00000000000E+00 0.  1.
         21   -1    0    0  501  503 -0.00000000000E+00 -0.00000000000E+00 -0.59846781866E+03  0.59846781866E+03  0.00000000000E+00 0. -1.
          6    1    1    2  501    0 -0.14377193631E+03 -0.13553105376E+03 -0.51949998985E+03  0.58210675624E+03  0.17300000000E+03 0. -1.
         -6    1    1    2    0  502  0.14377193631E+03  0.13553105376E+03  0.31407287930E+03  0.40940177054E+03  0.17300000000E+03 0.  1.
<mgrwt>
<rscale>  2 0.26261766E+03</rscale>
<asrwt>0</asrwt>
<pdfrwt beam="1">  1       21 0.60467801E-01 0.26261766E+03</pdfrwt>
<pdfrwt beam="2">  1       21 0.92071972E-01 0.26261766E+03</pdfrwt>
<totfact> 0.24063638E+03</totfact>
</mgrwt>
</event>
<event>
 4    1  0.4441180E+000  0.1766685E+03  0.7546771E-02  0.1171067E+00
         21   -1    0    0  501  502  0.00000000000E+00  0.00000000000E+00  0.19576569781E+03  0.19576569781E+03  0.00000000000E+00 0. -1.
         21   -1    0    0  502  503 -0.00000000000E+00 -0.00000000000E+00 -0.17946527883E+03  0.17946527883E+03  0.00000000000E+00 0. -1.
          6    1    1    2  501    0  0.77645914471E+01  0.34963623343E+02  0.70830476425E+02  0.19033838349E+03  0.17300000000E+03 0. -1.
         -6    1    1    2    0  503 -0.77645914471E+01 -0.34963623343E+02 -0.54530057448E+02  0.18489259315E+03  0.17300000000E+03 0. -1.
<mgrwt>
<rscale>  2 0.17666846E+03</rscale>
<asrwt>0</asrwt>
<pdfrwt beam="1">  1       21 0.30117800E-01 0.17666846E+03</pdfrwt>
<pdfrwt beam="2">  1       21 0.27610043E-01 0.17666846E+03</pdfrwt>
<totfact> 0.13309994E+05</totfact>
</mgrwt>
</event>
<event>
 4    1  0.4441180E+000  0.2141256E+03  0.7546771E-02  0.1138340E+00
         21   -1    0    0  503  502  0.00000000000E+00  0.00000000000E+00  0.64207015370E+02  0.64207015370E+02  0.00000000000E+00 0.  1.
         21   -1    0    0  501  503 -0.00000000000E+00 -0.00000000000E+00 -0.97846822249E+03  0.97846822249E+03  0.00000000000E+00 0.  1.
          6    1    1    2  501    0  0.11430823866E+03  0.53426651018E+02 -0.72812235590E+03  0.75895450828E+03  0.17300000000E+03 0.  1.
         -6    1    1    2    0  502 -0.11430823866E+03 -0.53426651018E+02 -0.18613885122E+03  0.28372072958E+03  0.17300000000E+03 0.  1.
<mgrwt>
<rscale>  2 0.21412562E+03</rscale>
<asrwt>0</asrwt>
<pdfrwt beam="1">  1       21 0.98780029E-02 0.21412562E+03</pdfrwt>
<pdfrwt beam="2">  1       21 0.15053357E+00 0.21412562E+03</pdfrwt>
<totfact> 0.24220184E+04</totfact>
</mgrwt>
</event>
<event>
 4    1  0.4441180E+000  0.2137821E+03  0.7546771E-02  0.1138606E+00
         21   -1    0    0  501  502  0.00000000000E+00  0.00000000000E+00  0.14671576363E+04  0.14671576363E+04  0.00000000000E+00 0.  1.
         21   -1    0    0  502  503 -0.00000000000E+00 -0.00000000000E+00 -0.40791899986E+02  0.40791899986E+02  0.00000000000E+00 0.  1.
          6    1    1    2  501    0  0.47723667320E+02 -0.11617322043E+03  0.10797375713E+04  0.11006979552E+04  0.17300000000E+03 0.  1.
         -6    1    1    2    0  503 -0.47723667320E+02  0.11617322043E+03  0.34662816502E+03  0.40725158115E+03  0.17300000000E+03 0.  1.
<mgrwt>
<rscale>  2 0.21378205E+03</rscale>
<asrwt>0</asrwt>
<pdfrwt beam="1">  1       21 0.22571652E+00 0.21378205E+03</pdfrwt>
<pdfrwt beam="2">  1       21 0.62756781E-02 0.21378205E+03</pdfrwt>
<totfact> 0.16659336E+04</totfact>
</mgrwt>
</event>
<event>
 4    1  0.4441180E+000  0.2217262E+03  0.7546771E-02  0.1132603E+00
         21   -1    0    0  503  502  0.00000000000E+00  0.00000000000E+00  0.72331863491E+03  0.72331863491E+03  0.00000000000E+00 0.  1.
         21   -1    0    0  501  503 -0.00000000000E+00 -0.00000000000E+00 -0.94351212394E+02  0.94351212394E+02  0.00000000000E+00 0. -1.
          6    1    1    2  501    0 -0.91013924617E+02 -0.10464208300E+03  0.98292357977E+02  0.24253636355E+03  0.17300000000E+03 0. -1.
         -6    1    1    2    0  502  0.91013924617E+02  0.10464208300E+03  0.53067506454E+03  0.57513348375E+03  0.17300000000E+03 0.  1.
<mgrwt>
<rscale>  2 0.22172618E+03</rscale>
<asrwt>0</asrwt>
<pdfrwt beam="1">  1       21 0.11127979E+00 0.22172618E+03</pdfrwt>
<pdfrwt beam="2">  1       21 0.14515572E-01 0.22172618E+03</pdfrwt>
<totfact> 0.26003050E+04</totfact>
</mgrwt>
</event>
<event>
 4    1  0.4441180E+000  0.2365965E+03  0.7546771E-02  0.1122081E+00
         21   -1    0    0  503  502  0.00000000000E+00  0.00000000000E+00  0.65221018418E+03  0.65221018418E+03  0.00000000000E+00 0. -1.
         21   -1    0    0  501  503 -0.00000000000E+00 -0.00000000000E+00 -0.11732761994E+03  0.11732761994E+03  0.00000000000E+00 0. -1.
          6    1    1    2  501    0  0.83291140640E+02 -0.13824437106E+03  0.68074760814E+02  0.24619523411E+03  0.17300000000E+03 0. -1.
         -6    1    1    2    0  502 -0.83291140640E+02  0.13824437106E+03  0.46680780343E+03  0.52334257001E+03  0.17300000000E+03 0. -1.
<mgrwt>
<rscale>  2 0.23659653E+03</rscale>
<asrwt>0</asrwt>
<pdfrwt beam="1">  1       21 0.10034003E+00 0.23659653E+03</pdfrwt>
<pdfrwt beam="2">  1       21 0.18050403E-01 0.23659653E+03</pdfrwt>
<totfact> 0.22183238E+04</totfact>
</mgrwt>
</event>
<event>
 4    1  0.4441180E+000  0.1982708E+03  0.7546771E-02  0.1151206E+00
         21   -1    0    0  501  502  0.00000000000E+00  0.00000000000E+00  0.46451864486E+02  0.46451864486E+02  0.00000000000E+00 0.  1.
         21   -1    0    0  502  503 -0.00000000000E+00 -0.00000000000E+00 -0.95708793060E+03  0.95708793060E+03  0.00000000000E+00 0.  1.
          6    1    1    2  501    0  0.19772862357E+02 -0.94822775716E+02 -0.28458703628E+03  0.34684449844E+03  0.17300000000E+03 0. -1.
         -6    1    1    2    0  503 -0.19772862357E+02  0.94822775716E+02 -0.62604902984E+03  0.65669529665E+03  0.17300000000E+03 0. -1.
<mgrwt>
<rscale>  2 0.19827084E+03</rscale>
<asrwt>0</asrwt>
<pdfrwt beam="1">  1       21 0.71464411E-02 0.19827084E+03</pdfrwt>
<pdfrwt beam="2">  1       21 0.14724429E+00 0.19827084E+03</pdfrwt>
<totfact> 0.45652808E+04</totfact>
</mgrwt>
</event>
<event>
 4    1  0.4441180E+000  0.2301484E+03  0.7546771E-02  0.1126535E+00
         21   -1    0    0  501  502  0.00000000000E+00  0.00000000000E+00  0.45970523202E+02  0.45970523202E+02  0.00000000000E+00 0.  1.
         21   -1    0    0  502  503 -0.00000000000E+00 -0.00000000000E+00 -0.13133246239E+04  0.13133246239E+04  0.00000000000E+00 0.  1.
          6    1    1    2  501    0  0.66230642638E+02  0.13657525124E+03 -0.39563833667E+03  0.45770950473E+03  0.17300000000E+03 0.  1.
         -6    1    1    2    0  503 -0.66230642638E+02 -0.13657525124E+03 -0.87171576402E+03  0.90158564237E+03  0.17300000000E+03 0.  1.
<mgrwt>
<rscale>  2 0.23014842E+03</rscale>
<asrwt>0</asrwt>
<pdfrwt beam="1">  1       21 0.70723882E-02 0.23014842E+03</pdfrwt>
<pdfrwt beam="2">  1       21 0.20204994E+00 0.23014842E+03</pdfrwt>
<totfact> 0.18836242E+04</totfact>
</mgrwt>
</event>
<event>
 4    1  0.4441180E+000  0.2122104E+03  0.7546771E-02  0.1139827E+00
         21   -1    0    0  501  502  0.00000000000E+00  0.00000000000E+00  0.84935491961E+02  0.84935491961E+02  0.00000000000E+00 0. -1.
         21   -1    0    0  502  503 -0.00000000000E+00 -0.00000000000E+00 -0.57872857046E+03  0.57872857046E+03  0.00000000000E+00 0. -1.
          6    1    1    2  501    0 -0.37286705454E+02 -0.11710662877E+03 -0.15081162739E+03  0.26034094541E+03  0.17300000000E+03 0. -1.
         -6    1    1    2    0  503  0.37286705454E+02  0.11710662877E+03 -0.34298145112E+03  0.40332311701E+03  0.17300000000E+03 0. -1.
<mgrwt>
<rscale>  2 0.21221042E+03</rscale>
<asrwt>0</asrwt>
<pdfrwt beam="1">  1       21 0.13066999E-01 0.21221042E+03</pdfrwt>
<pdfrwt beam="2">  1       21 0.89035165E-01 0.21221042E+03</pdfrwt>
<totfact> 0.53727771E+04</totfact>
</mgrwt>
</event>
<event>
 4    1  0.4441180E+000  0.2162661E+03  0.7546771E-02  0.1136698E+00
         21   -1    0    0  503  502  0.00000000000E+00  0.00000000000E+00  0.19082004476E+03  0.19082004476E+03  0.00000000000E+00 0.  1.
         21   -1    0    0  501  503 -0.00000000000E+00 -0.00000000000E+00 -0.28702692729E+03  0.28702692729E+03  0.00000000000E+00 0. -1.
          6    1    1    2  501    0  0.11099297622E+03 -0.67250044132E+02 -0.13941304444E+03  0.25730722136E+03  0.17300000000E+03 0.  1.
         -6    1    1    2    0  502 -0.11099297622E+03  0.67250044132E+02  0.43206161915E+02  0.22053975069E+03  0.17300000000E+03 0. -1.
<mgrwt>
<rscale>  2 0.21626606E+03</rscale>
<asrwt>0</asrwt>
<pdfrwt beam="1">  1       21 0.29356930E-01 0.21626606E+03</pdfrwt>
<pdfrwt beam="2">  1       21 0.44157989E-01 0.21626606E+03</pdfrwt>
<totfact> 0.54150575E+04</totfact>
</mgrwt>
</event>
<event>
 4    1  0.4441180E+000  0.2177275E+03  0.7546771E-02  0.1135589E+00
         21   -1    0    0  503  502  0.00000000000E+00  0.00000000000E+00  0.15361535180E+04  0.15361535180E+04  0.00000000000E+00 0. -1.
         21   -1    0    0  501  503 -0.00000000000E+00 -0.00000000000E+00 -0.62390255530E+02  0.62390255530E+02  0.00000000000E+00 0.  1.
          6    1    1    2  501    0 -0.59125014827E+02  0.11823909618E+03  0.16868075184E+03  0.27542412256E+03  0.17300000000E+03 0.  1.
         -6    1    1    2    0  502  0.59125014827E+02 -0.11823909618E+03  0.13050825106E+04  0.13231196510E+04  0.17300000000E+03 0. -1.
<mgrwt>
<rscale>  2 0.21772747E+03</rscale>
<asrwt>0</asrwt>
<pdfrwt beam="1">  1       21 0.23633128E+00 0.21772747E+03</pdfrwt>
<pdfrwt beam="2">  1       21 0.95985020E-02 0.21772747E+03</pdfrwt>
<totfact> 0.68282676E+03</totfact>
</mgrwt>
</event>
<event>
 4    1  0.4441180E+000  0.1847388E+03  0.7546771E-02  0.1163294E+00
         21   -1    0    0  503  502  0.00000000000E+00  0.00000000000E+00  0.47278702146E+02  0.47278702146E+02  0.00000000000E+00 0. -1.
         21   -1    0    0  501  503 -0.00000000000E+00 -0.00000000000E+00 -0.13755666218E+04  0.13755666218E+04  0.00000000000E+00 0. -1.
          6    1    1    2  501    0 -0.55616000737E+02  0.33260642226E+02 -0.11545769613E+04  0.11692631737E+04  0.17300000000E+03 0. -1.
         -6    1    1    2    0  502  0.55616000737E+02 -0.33260642226E+02 -0.17371095835E+03  0.25358215022E+03  0.17300000000E+03 0. -1.
<mgrwt>
<rscale>  2 0.18473876E+03</rscale>
<asrwt>0</asrwt>
<pdfrwt beam="1">  1       21 0.72736456E-02 0.18473876E+03</pdfrwt>
<pdfrwt beam="2">  1       21 0.21162566E+00 0.18473876E+03</pdfrwt>
<totfact> 0.16150802E+04</totfact>
</mgrwt>
</event>
<event>
 4    1  0.4441180E+000  0.1955736E+03  0.7546771E-02  0.1153528E+00
         21   -1    0    0  501  502  0.00000000000E+00  0.00000000000E+00  0.34638588408E+03  0.34638588408E+03  0.00000000000E+00 0. -1.
         21   -1    0    0  502  503 -0.00000000000E+00 -0.00000000000E+00 -0.12239125445E+03  0.12239125445E+03  0.00000000000E+00 0. -1.
          6    1    1    2  501    0 -0.89270026672E+02 -0.18732249913E+02  0.18529211504E+03  0.26941084378E+03  0.17300000000E+03 0. -1.
         -6    1    1    2    0  503  0.89270026672E+02  0.18732249913E+02  0.38702514586E+02  0.19936629475E+03  0.17300000000E+03 0. -1.
<mgrwt>
<rscale>  2 0.19557360E+03</rscale>
<asrwt>0</asrwt>
<pdfrwt beam="1">  1       21 0.53290136E-01 0.19557360E+03</pdfrwt>
<pdfrwt beam="2">  1       21 0.18829424E-01 0.19557360E+03</pdfrwt>
<totfact> 0.86010028E+04</totfact>
</mgrwt>
</event>
<event>
 4    1  0.4441180E+000  0.1775188E+03  0.7546771E-02  0.1170226E+00
         21   -1    0    0  503  502  0.00000000000E+00  0.00000000000E+00  0.16245062600E+03  0.16245062600E+03  0.00000000000E+00 0.  1.
         21   -1    0    0  501  503 -0.00000000000E+00 -0.00000000000E+00 -0.19746071073E+03  0.19746071073E+03  0.00000000000E+00 0.  1.
          6    1    1    2  501    0 -0.31564394926E+02 -0.24240742035E+02 -0.41381511357E+02  0.18227823261E+03  0.17300000000E+03 0.  1.
         -6    1    1    2    0  502  0.31564394926E+02  0.24240742035E+02  0.63714266320E+01  0.17763310412E+03  0.17300000000E+03 0.  1.
<mgrwt>
<rscale>  2 0.17751880E+03</rscale>
<asrwt>0</asrwt>
<pdfrwt beam="1">  1       21 0.24992404E-01 0.17751880E+03</pdfrwt>
<pdfrwt beam="2">  1       21 0.30378571E-01 0.17751880E+03</pdfrwt>
<totfact> 0.15835063E+05</totfact>
</mgrwt>
</event>
<event>
 4    1  0.4441180E+000  0.1908020E+03  0.7546771E-02  0.1157740E+00
         21   -1    0    0  501  502  0.00000000000E+00  0.00000000000E+00  0.11460346373E+04  0.11460346373E+04  0.00000000000E+00 0.  1.
         21   -1    0    0  502  503 -0.00000000000E+00 -0.00000000000E+00 -0.46501781147E+02  0.46501781147E+02  0.00000000000E+00 0.  1.
          6    1    1    2  501    0 -0.15211620728E+02  0.79025325489E+02  0.88541711331E+03  0.90574215979E+03  0.17300000000E+03 0.  1.
         -6    1    1    2    0  503  0.15211620728E+02 -0.79025325489E+02  0.21411574289E+03  0.28679425871E+03  0.17300000000E+03 0.  1.
<mgrwt>
<rscale>  2 0.19080198E+03</rscale>
<asrwt>0</asrwt>
<pdfrwt beam="1">  1       21 0.17631300E+00 0.19080198E+03</pdfrwt>
<pdfrwt beam="2">  1       21 0.71541210E-02 0.19080198E+03</pdfrwt>
<totfact> 0.28130040E+04</totfact>
</mgrwt>
</event>
<event>
 4    1  0.4441180E+000  0.1777460E+03  0.7546771E-02  0.1170002E+00
         21   -1    0    0  503  502  0.00000000000E+00  0.00000000000E+00  0.36446562299E+02  0.36446562299E+02  0.00000000000E+00 0. -1.
         21   -1    0    0  501  503 -0.00000000000E+00 -0.00000000000E+00 -0.10342780947E+04  0.10342780947E+04  0.00000000000E+00 0.  1.
          6    1    1    2  501    0 -0.40794708628E+02 -0.67050410944E+00 -0.71431537148E+03  0.73609789279E+03  0.17300000000E+03 0.  1.
         -6    1    1    2    0  502  0.40794708628E+02  0.67050410944E+00 -0.28351616093E+03  0.33462676423E+03  0.17300000000E+03 0. -1.
<mgrwt>
<rscale>  2 0.17774605E+03</rscale>
<asrwt>0</asrwt>
<pdfrwt beam="1">  1       21 0.56071635E-02 0.17774605E+03</pdfrwt>
<pdfrwt beam="2">  1       21 0.15911970E+00 0.17774605E+03</pdfrwt>
<totfact> 0.57027538E+04</totfact>
</mgrwt>
</event>
<event>
 4    1  0.4441180E+000  0.1825532E+03  0.7546771E-02  0.1165355E+00
         21   -1    0    0  501  502  0.00000000000E+00  0.00000000000E+00  0.11014669181E+04  0.11014669181E+04  0.00000000000E+00 0.  1.
         21   -1    0    0  502  503 -0.00000000000E+00 -0.00000000000E+00 -0.31458597740E+02  0.31458597740E+02  0.00000000000E+00 0. -1.
          6    1    1    2  501    0 -0.41508491725E+02 -0.40911024989E+02  0.64577200517E+03  0.67107909333E+03  0.17300000000E+03 0.  1.
         -6    1    1    2    0  503  0.41508491725E+02  0.40911024989E+02  0.42423631514E+03  0.46184642246E+03  0.17300000000E+03 0. -1.
<mgrwt>
<rscale>  2 0.18255319E+03</rscale>
<asrwt>0</asrwt>
<pdfrwt beam="1">  1       21 0.16945642E+00 0.18255319E+03</pdfrwt>
<pdfrwt beam="2">  1       21 0.48397851E-02 0.18255319E+03</pdfrwt>
<totfact> 0.61541690E+04</totfact>
</mgrwt>
</event>
<event>
 4    1  0.4441180E+000  0.2466215E+03  0.7546771E-02  0.1115459E+00
         21   -1    0    0  501  502  0.00000000000E+00  0.00000000000E+00  0.19846040961E+03  0.19846040961E+03  0.00000000000E+00 0. -1.
         21   -1    0    0  502  503 -0.00000000000E+00 -0.00000000000E+00 -0.46836491373E+03  0.46836491373E+03  0.00000000000E+00 0.  1.
          6    1    1    2  501    0  0.13279811268E+03  0.11514266268E+03  0.61070484601E+02  0.25407041463E+03  0.17300000000E+03 0. -1.
         -6    1    1    2    0  503 -0.13279811268E+03 -0.11514266268E+03 -0.33097498873E+03  0.41275490871E+03  0.17300000000E+03 0. -1.
<mgrwt>
<rscale>  2 0.24662151E+03</rscale>
<asrwt>0</asrwt>
<pdfrwt beam="1">  1       21 0.30532371E-01 0.24662151E+03</pdfrwt>
<pdfrwt beam="2">  1       21 0.72056140E-01 0.24662151E+03</pdfrwt>
<totfact> 0.17354788E+04</totfact>
</mgrwt>
</event>
<event>
 4    1  0.4441180E+000  0.1924314E+03  0.7546771E-02  0.1156287E+00
         21   -1    0    0  503  502  0.00000000000E+00  0.00000000000E+00  0.72352093556E+02  0.72352093556E+02  0.00000000000E+00 0.  1.
         21   -1    0    0  501  503 -0.00000000000E+00 -0.00000000000E+00 -0.77543285389E+03  0.77543285389E+03  0.00000000000E+00 0.  1.
          6    1    1    2  501    0  0.55942482103E+02  0.63018014658E+02 -0.59870313720E+03  0.62886825168E+03  0.17300000000E+03 0.  1.
         -6    1    1    2    0  502 -0.55942482103E+02 -0.63018014658E+02 -0.10437762313E+03  0.21891669577E+03  0.17300000000E+03 0.  1.
<mgrwt>
<rscale>  2 0.19243137E+03</rscale>
<asrwt>0</asrwt>
<pdfrwt beam="1">  1       21 0.11131093E-01 0.19243137E+03</pdfrwt>
<pdfrwt beam="2">  1       21 0.11929735E+00 0.19243137E+03</pdfrwt>
<totfact> 0.35963511E+04</totfact>
</mgrwt>
</event>
<event>
 4    1  0.4441180E+000  0.1798786E+03  0.7546771E-02  0.1167921E+00
         21   -1    0    0  501  502  0.00000000000E+00  0.00000000000E+00  0.16681791485E+02  0.16681791485E+02  0.00000000000E+00 0.  1.
         21   -1    0    0  502  503 -0.00000000000E+00 -0.00000000000E+00 -0.19457466148E+04  0.19457466148E+04  0.00000000000E+00 0.  1.
          6    1    1    2  501    0 -0.49265161354E+02 -0.49080816045E+00 -0.10196023552E+04  0.10353478931E+04  0.17300000000E+03 0.  1.
         -6    1    1    2    0  503  0.49265161354E+02  0.49080816045E+00 -0.90946246806E+03  0.92708051313E+03  0.17300000000E+03 0.  1.
<mgrwt>
<rscale>  2 0.17987856E+03</rscale>
<asrwt>0</asrwt>
<pdfrwt beam="1">  1       21 0.25664299E-02 0.17987856E+03</pdfrwt>
<pdfrwt beam="2">  1       21 0.29934558E+00 0.17987856E+03</pdfrwt>
<totfact> 0.28542257E+04</totfact>
</mgrwt>
</event>
<event>
 4    1  0.4441180E+000  0.1763327E+03  0.7546771E-02  0.1171400E+00
         21   -1    0    0  501  502  0.00000000000E+00  0.00000000000E+00  0.76946288849E+02  0.76946288849E+02  0.00000000000E+00 0.  1.
         21   -1    0    0  502  503 -0.00000000000E+00 -0.00000000000E+00 -0.86444460054E+03  0.86444460054E+03  0.00000000000E+00 0.  1.
          6    1    1    2  501    0 -0.23419259049E+02  0.24814663898E+02 -0.50256358033E+02  0.18335465841E+03  0.17300000000E+03 0.  1.
         -6    1    1    2    0  503  0.23419259049E+02 -0.24814663898E+02 -0.73724195366E+03  0.75803623098E+03  0.17300000000E+03 0.  1.
<mgrwt>
<rscale>  2 0.17633272E+03</rscale>
<asrwt>0</asrwt>
<pdfrwt beam="1">  1       21 0.11837890E-01 0.17633272E+03</pdfrwt>
<pdfrwt beam="2">  1       21 0.13299149E+00 0.17633272E+03</pdfrwt>
<totfact> 0.24790457E+04</totfact>
</mgrwt>
</event>
<event>
 4    1  0.4441180E+000  0.1813916E+03  0.7546771E-02  0.1166463E+00
         21   -1    0    0  501  502  0.00000000000E+00  0.00000000000E+00  0.10594451311E+04  0.10594451311E+04  0.00000000000E+00 0.  1.
         21   -1    0    0  502  503 -0.00000000000E+00 -0.00000000000E+00 -0.39040974680E+02  0.39040974680E+02  0.00000000000E+00 0.  1.
          6    1    1    2  501    0  0.53504887268E+02 -0.10542540225E+02  0.75858443071E+03  0.77997003573E+03  0.17300000000E+03 0.  1.
         -6    1    1    2    0  503 -0.53504887268E+02  0.10542540225E+02  0.26181972575E+03  0.31851607009E+03  0.17300000000E+03 0.  1.
<mgrwt>
<rscale>  2 0.18139162E+03</rscale>
<asrwt>0</asrwt>
<pdfrwt beam="1">  1       21 0.16299154E+00 0.18139162E+03</pdfrwt>
<pdfrwt beam="2">  1       21 0.60063046E-02 0.18139162E+03</pdfrwt>
<totfact> 0.47432144E+04</totfact>
</mgrwt>
</event>
<event>
 4    1  0.4441180E+000  0.2093197E+03  0.7546771E-02  0.1142106E+00
         21   -1    0    0  501  502  0.00000000000E+00  0.00000000000E+00  0.11148221998E+03  0.11148221998E+03  0.00000000000E+00 0. -1.
         21   -1    0    0  502  503 -0.00000000000E+00 -0.00000000000E+00 -0.43050580776E+03  0.43050580776E+03  0.00000000000E+00 0. -1.
          6    1    1    2  501    0  0.79495156175E+02  0.86984137481E+02 -0.23947768363E+03  0.31806332857E+03  0.17300000000E+03 0. -1.
         -6    1    1    2    0  503 -0.79495156175E+02 -0.86984137481E+02 -0.79545904153E+02  0.22392469917E+03  0.17300000000E+03 0. -1.
<mgrwt>
<rscale>  2 0.20931966E+03</rscale>
<asrwt>0</asrwt>
<pdfrwt beam="1">  1       21 0.17151111E-01 0.20931966E+03</pdfrwt>
<pdfrwt beam="2">  1       21 0.66231662E-01 0.20931966E+03</pdfrwt>
<totfact> 0.63721784E+04</totfact>
</mgrwt>
</event>
<event>
 4    1  0.4441180E+000  0.2367192E+03  0.7546771E-02  0.1121998E+00
         21   -1    0    0  501  502  0.00000000000E+00  0.00000000000E+00  0.11143100931E+04  0.11143100931E+04  0.00000000000E+00 0. -1.
         21   -1    0    0  502  503 -0.00000000000E+00 -0.00000000000E+00 -0.12900305210E+03  0.12900305210E+03  0.00000000000E+00 0. -1.
          6    1    1    2  501    0  0.29364028145E+02 -0.15888589468E+03  0.97825561386E+03  0.10064889566E+04  0.17300000000E+03 0. -1.
         -6    1    1    2    0  503 -0.29364028145E+02  0.15888589468E+03  0.70514271191E+01  0.23682418859E+03  0.17300000000E+03 0. -1.
<mgrwt>
<rscale>  2 0.23671919E+03</rscale>
<asrwt>0</asrwt>
<pdfrwt beam="1">  1       21 0.17143232E+00 0.23671919E+03</pdfrwt>
<pdfrwt beam="2">  1       21 0.19846624E-01 0.23671919E+03</pdfrwt>
<totfact> 0.47099318E+03</totfact>
</mgrwt>
</event>
<event>
 4    1  0.4441180E+000  0.2381008E+03  0.7546771E-02  0.1121065E+00
         21   -1    0    0  501  502  0.00000000000E+00  0.00000000000E+00  0.10553698361E+04  0.10553698361E+04  0.00000000000E+00 0.  1.
         21   -1    0    0  502  503 -0.00000000000E+00 -0.00000000000E+00 -0.11541866190E+03  0.11541866190E+03  0.00000000000E+00 0.  1.
          6    1    1    2  501    0  0.11355762742E+02 -0.16319936366E+03  0.89798821596E+03  0.92901820307E+03  0.17300000000E+03 0.  1.
         -6    1    1    2    0  503 -0.11355762742E+02  0.16319936366E+03  0.41962958260E+02  0.24177029494E+03  0.17300000000E+03 0.  1.
<mgrwt>
<rscale>  2 0.23810079E+03</rscale>
<asrwt>0</asrwt>
<pdfrwt beam="1">  1       21 0.16236458E+00 0.23810079E+03</pdfrwt>
<pdfrwt beam="2">  1       21 0.17756718E-01 0.23810079E+03</pdfrwt>
<totfact> 0.67274914E+03</totfact>
</mgrwt>
</event>
<event>
 4    1  0.4441180E+000  0.2022590E+03  0.7546771E-02  0.1147847E+00
         21   -1    0    0  503  502  0.00000000000E+00  0.00000000000E+00  0.38458841462E+03  0.38458841462E+03  0.00000000000E+00 0. -1.
         21   -1    0    0  501  503 -0.00000000000E+00 -0.00000000000E+00 -0.14380073486E+03  0.14380073486E+03  0.00000000000E+00 0. -1.
          6    1    1    2  501    0  0.18588819723E+02  0.10312207520E+03 -0.14395939282E+02  0.20277068250E+03  0.17300000000E+03 0. -1.
         -6    1    1    2    0  502 -0.18588819723E+02 -0.10312207520E+03  0.25518361904E+03  0.32561846698E+03  0.17300000000E+03 0. -1.
<mgrwt>
<rscale>  2 0.20225901E+03</rscale>
<asrwt>0</asrwt>
<pdfrwt beam="1">  1       21 0.59167448E-01 0.20225901E+03</pdfrwt>
<pdfrwt beam="2">  1       21 0.22123190E-01 0.20225901E+03</pdfrwt>
<totfact> 0.50760918E+04</totfact>
</mgrwt>
</event>
<event>
 4    1  0.4441180E+000  0.2389975E+03  0.7546771E-02  0.1120462E+00
         21   -1    0    0  501  502  0.00000000000E+00  0.00000000000E+00  0.50763072923E+03  0.50763072923E+03  0.00000000000E+00 0. -1.
         21   -1    0    0  502  503 -0.00000000000E+00 -0.00000000000E+00 -0.35934998642E+03  0.35934998642E+03  0.00000000000E+00 0.  1.
          6    1    1    2  501    0  0.14091548828E+03 -0.85636502215E+02  0.43340755348E+03  0.49493625121E+03  0.17300000000E+03 0. -1.
         -6    1    1    2    0  503 -0.14091548828E+03  0.85636502215E+02 -0.28512681068E+03  0.37204446443E+03  0.17300000000E+03 0.  1.
<mgrwt>
<rscale>  2 0.23899746E+03</rscale>
<asrwt>0</asrwt>
<pdfrwt beam="1">  1       21 0.78097035E-01 0.23899746E+03</pdfrwt>
<pdfrwt beam="2">  1       21 0.55284613E-01 0.23899746E+03</pdfrwt>
<totfact> 0.43292322E+03</totfact>
</mgrwt>
</event>
<event>
 4    1  0.4441180E+000  0.2061491E+03  0.7546771E-02  0.1144652E+00
         21   -1    0    0  501  502  0.00000000000E+00  0.00000000000E+00  0.13238610530E+03  0.13238610530E+03  0.00000000000E+00 0.  1.
         21   -1    0    0  502  503 -0.00000000000E+00 -0.00000000000E+00 -0.39252191529E+03  0.39252191529E+03  0.00000000000E+00 0.  1.
          6    1    1    2  501    0 -0.16858473786E+02  0.11083422941E+03 -0.24209073601E+03  0.31797068892E+03  0.17300000000E+03 0.  1.
         -6    1    1    2    0  503  0.16858473786E+02 -0.11083422941E+03 -0.18045073979E+02  0.20693733168E+03  0.17300000000E+03 0.  1.
<mgrwt>
<rscale>  2 0.20614906E+03</rscale>
<asrwt>0</asrwt>
<pdfrwt beam="1">  1       21 0.20367093E-01 0.20614906E+03</pdfrwt>
<pdfrwt beam="2">  1       21 0.60387986E-01 0.20614906E+03</pdfrwt>
<totfact> 0.56653996E+04</totfact>
</mgrwt>
</event>
<event>
 4    1  0.4441180E+000  0.2038489E+03  0.7546771E-02  0.1146532E+00
         21   -1    0    0  501  502  0.00000000000E+00  0.00000000000E+00  0.16372144662E+03  0.16372144662E+03  0.00000000000E+00 0.  1.
         21   -1    0    0  502  503 -0.00000000000E+00 -0.00000000000E+00 -0.25443204528E+03  0.25443204528E+03  0.00000000000E+00 0.  1.
          6    1    1    2  501    0 -0.82114373329E+02 -0.69875552474E+02 -0.35028748072E+02  0.20683659331E+03  0.17300000000E+03 0.  1.
         -6    1    1    2    0  503  0.82114373329E+02  0.69875552474E+02 -0.55681850588E+02  0.21131689858E+03  0.17300000000E+03 0.  1.
<mgrwt>
<rscale>  2 0.20384887E+03</rscale>
<asrwt>0</asrwt>
<pdfrwt beam="1">  1       21 0.25187915E-01 0.20384887E+03</pdfrwt>
<pdfrwt beam="2">  1       21 0.39143392E-01 0.20384887E+03</pdfrwt>
<totfact> 0.93524521E+04</totfact>
</mgrwt>
</event>
<event>
 4    1  0.4441180E+000  0.1847926E+03  0.7546771E-02  0.1163244E+00
         21   -1    0    0  501  502  0.00000000000E+00  0.00000000000E+00  0.34210074738E+02  0.34210074738E+02  0.00000000000E+00 0.  1.
         21   -1    0    0  502  503 -0.00000000000E+00 -0.00000000000E+00 -0.10731127754E+04  0.10731127754E+04  0.00000000000E+00 0.  1.
          6    1    1    2  501    0 -0.62084738778E+02 -0.19099928596E+02 -0.37316145942E+03  0.41641061089E+03  0.17300000000E+03 0. -1.
         -6    1    1    2    0  503  0.62084738778E+02  0.19099928596E+02 -0.66574124128E+03  0.69091223929E+03  0.17300000000E+03 0. -1.
<mgrwt>
<rscale>  2 0.18479265E+03</rscale>
<asrwt>0</asrwt>
<pdfrwt beam="1">  1       21 0.52630874E-02 0.18479265E+03</pdfrwt>
<pdfrwt beam="2">  1       21 0.16509431E+00 0.18479265E+03</pdfrwt>
<totfact> 0.57258391E+04</totfact>
</mgrwt>
</event>
<event>
 4    1  0.4441180E+000  0.1802173E+03  0.7546771E-02  0.1167593E+00
         21   -1    0    0  501  502  0.00000000000E+00  0.00000000000E+00  0.13635649376E+03  0.13635649376E+03  0.00000000000E+00 0. -1.
         21   -1    0    0  502  503 -0.00000000000E+00 -0.00000000000E+00 -0.95630899146E+03  0.95630899146E+03  0.00000000000E+00 0. -1.
          6    1    1    2  501    0  0.34263043727E+02  0.37085315598E+02  0.63455493000E+02  0.19106249342E+03  0.17300000000E+03 0. -1.
         -6    1    1    2    0  503 -0.34263043727E+02 -0.37085315598E+02 -0.88340799070E+03  0.90160299181E+03  0.17300000000E+03 0. -1.
<mgrwt>
<rscale>  2 0.18021730E+03</rscale>
<asrwt>0</asrwt>
<pdfrwt beam="1">  1       21 0.20977923E-01 0.18021730E+03</pdfrwt>
<pdfrwt beam="2">  1       21 0.14712446E+00 0.18021730E+03</pdfrwt>
<totfact> 0.67063449E+03</totfact>
</mgrwt>
</event>
<event>
 4    1  0.4441180E+000  0.1901949E+03  0.7546771E-02  0.1158286E+00
         21   -1    0    0  503  502  0.00000000000E+00  0.00000000000E+00  0.30368732223E+03  0.30368732223E+03  0.00000000000E+00 0. -1.
         21   -1    0    0  501  503 -0.00000000000E+00 -0.00000000000E+00 -0.28176579299E+03  0.28176579299E+03  0.00000000000E+00 0. -1.
          6    1    1    2  501    0 -0.42760588691E+01 -0.78910130718E+02 -0.21144417178E+03  0.28439889449E+03  0.17300000000E+03 0. -1.
         -6    1    1    2    0  502  0.42760588691E+01  0.78910130718E+02  0.23336570102E+03  0.30105422073E+03  0.17300000000E+03 0. -1.
<mgrwt>
<rscale>  2 0.19019488E+03</rscale>
<asrwt>0</asrwt>
<pdfrwt beam="1">  1       21 0.46721127E-01 0.19019488E+03</pdfrwt>
<pdfrwt beam="2">  1       21 0.43348583E-01 0.19019488E+03</pdfrwt>
<totfact> 0.22471331E+04</totfact>
</mgrwt>
</event>
<event>
 4    1  0.4441180E+000  0.1919013E+03  0.7546771E-02  0.1156758E+00
         21   -1    0    0  501  502  0.00000000000E+00  0.00000000000E+00  0.49661834890E+03  0.49661834890E+03  0.00000000000E+00 0. -1.
         21   -1    0    0  502  503 -0.00000000000E+00 -0.00000000000E+00 -0.74901568832E+02  0.74901568832E+02  0.00000000000E+00 0.  1.
          6    1    1    2  501    0  0.26942147185E+02  0.78557088272E+02  0.18230456230E+03  0.26469047744E+03  0.17300000000E+03 0. -1.
         -6    1    1    2    0  503 -0.26942147185E+02 -0.78557088272E+02  0.23941221777E+03  0.30682944030E+03  0.17300000000E+03 0. -1.
<mgrwt>
<rscale>  2 0.19190126E+03</rscale>
<asrwt>0</asrwt>
<pdfrwt beam="1">  1       21 0.76402821E-01 0.19190126E+03</pdfrwt>
<pdfrwt beam="2">  1       21 0.11523319E-01 0.19190126E+03</pdfrwt>
<totfact> 0.96267228E+04</totfact>
</mgrwt>
</event>
<event>
 4    1  0.4441180E+000  0.3341207E+03  0.7546771E-02  0.1069328E+00
         21   -1    0    0  501  502  0.00000000000E+00  0.00000000000E+00  0.15206075772E+04  0.15206075772E+04  0.00000000000E+00 0. -1.
         21   -1    0    0  502  503 -0.00000000000E+00 -0.00000000000E+00 -0.10648426622E+03  0.10648426622E+03  0.00000000000E+00 0.  1.
          6    1    1    2  501    0 -0.28200706625E+03  0.46686921433E+02  0.11604248268E+04  0.12075688108E+04  0.17300000000E+03 0. -1.
         -6    1    1    2    0  503  0.28200706625E+03 -0.46686921433E+02  0.25369848411E+03  0.41952303261E+03  0.17300000000E+03 0.  1.
<mgrwt>
<rscale>  2 0.33412072E+03</rscale>
<asrwt>0</asrwt>
<pdfrwt beam="1">  1       21 0.23393961E+00 0.33412072E+03</pdfrwt>
<pdfrwt beam="2">  1       21 0.16382196E-01 0.33412072E+03</pdfrwt>
<totfact> 0.24640647E+03</totfact>
</mgrwt>
</event>
<event>
 4    1  0.4441180E+000  0.2080631E+03  0.7546771E-02  0.1143109E+00
         21   -1    0    0  501  502  0.00000000000E+00  0.00000000000E+00  0.21795019944E+03  0.21795019944E+03  0.00000000000E+00 0.  1.
         21   -1    0    0  502  503 -0.00000000000E+00 -0.00000000000E+00 -0.33725299751E+03  0.33725299751E+03  0.00000000000E+00 0.  1.
          6    1    1    2  501    0  0.83905579825E+02  0.79505411253E+02  0.11832821417E+03  0.23935710354E+03  0.17300000000E+03 0.  1.
         -6    1    1    2    0  503 -0.83905579825E+02 -0.79505411253E+02 -0.23763101225E+03  0.31584609341E+03  0.17300000000E+03 0.  1.
<mgrwt>
<rscale>  2 0.20806311E+03</rscale>
<asrwt>0</asrwt>
<pdfrwt beam="1">  1       21 0.33530800E-01 0.20806311E+03</pdfrwt>
<pdfrwt beam="2">  1       21 0.51885076E-01 0.20806311E+03</pdfrwt>
<totfact> 0.29958064E+04</totfact>
</mgrwt>
</event>
<event>
 4    1  0.4441180E+000  0.1748140E+03  0.7546771E-02  0.1172919E+00
         21   -1    0    0  501  502  0.00000000000E+00  0.00000000000E+00  0.90572375203E+02  0.90572375203E+02  0.00000000000E+00 0. -1.
         21   -1    0    0  502  503 -0.00000000000E+00 -0.00000000000E+00 -0.66134725660E+03  0.66134725660E+03  0.00000000000E+00 0. -1.
          6    1    1    2  501    0 -0.23025812308E+02 -0.10036975494E+02 -0.22265046590E+02  0.17622616494E+03  0.17300000000E+03 0. -1.
         -6    1    1    2    0  503  0.23025812308E+02  0.10036975494E+02 -0.54850983481E+03  0.57569346686E+03  0.17300000000E+03 0. -1.
<mgrwt>
<rscale>  2 0.17481398E+03</rscale>
<asrwt>0</asrwt>
<pdfrwt beam="1">  1       21 0.13934211E-01 0.17481398E+03</pdfrwt>
<pdfrwt beam="2">  1       21 0.10174573E+00 0.17481398E+03</pdfrwt>
<totfact> 0.35678151E+04</totfact>
</mgrwt>
</event>
<event>
 4    1  0.4441180E+000  0.1879446E+03  0.7546771E-02  0.1160328E+00
         21   -1    0    0  503  502  0.00000000000E+00  0.00000000000E+00  0.13847207296E+03  0.13847207296E+03  0.00000000000E+00 0. -1.
         21   -1    0    0  501  503 -0.00000000000E+00 -0.00000000000E+00 -0.63582970874E+03  0.63582970874E+03  0.00000000000E+00 0. -1.
          6    1    1    2  501    0 -0.12451551945E+02  0.72381886396E+02 -0.54826553315E+03  0.57958456973E+03  0.17300000000E+03 0. -1.
         -6    1    1    2    0  502  0.12451551945E+02 -0.72381886396E+02  0.50907897371E+02  0.19471721197E+03  0.17300000000E+03 0. -1.
<mgrwt>
<rscale>  2 0.18794462E+03</rscale>
<asrwt>0</asrwt>
<pdfrwt beam="1">  1       21 0.21303396E-01 0.18794462E+03</pdfrwt>
<pdfrwt beam="2">  1       21 0.97819955E-01 0.18794462E+03</pdfrwt>
<totfact> 0.17788873E+04</totfact>
</mgrwt>
</event>
<event>
 4    1  0.4441180E+000  0.1878649E+03  0.7546771E-02  0.1160401E+00
         21   -1    0    0  503  502  0.00000000000E+00  0.00000000000E+00  0.47886803212E+03  0.47886803212E+03  0.00000000000E+00 0.  1.
         21   -1    0    0  501  503 -0.00000000000E+00 -0.00000000000E+00 -0.11936843612E+03  0.11936843612E+03  0.00000000000E+00 0. -1.
          6    1    1    2  501    0 -0.35878430540E+02 -0.63851184944E+02  0.36476168659E+03  0.41029784743E+03  0.17300000000E+03 0.  1.
         -6    1    1    2    0  502  0.35878430540E+02  0.63851184944E+02 -0.52620905898E+01  0.18793862082E+03  0.17300000000E+03 0. -1.
<mgrwt>
<rscale>  2 0.18786494E+03</rscale>
<asrwt>0</asrwt>
<pdfrwt beam="1">  1       21 0.73672004E-01 0.18786494E+03</pdfrwt>
<pdfrwt beam="2">  1       21 0.18364375E-01 0.18786494E+03</pdfrwt>
<totfact> 0.44866216E+04</totfact>
</mgrwt>
</event>
<event>
 4    1  0.4441180E+000  0.3663372E+03  0.7546771E-02  0.1056102E+00
         21   -1    0    0  501  502  0.00000000000E+00  0.00000000000E+00  0.16663146693E+04  0.16663146693E+04  0.00000000000E+00 0.  1.
         21   -1    0    0  502  503 -0.00000000000E+00 -0.00000000000E+00 -0.15319159904E+03  0.15319159904E+03  0.00000000000E+00 0. -1.
          6    1    1    2  501    0  0.14736547050E+03  0.28732803254E+03  0.13830776812E+04  0.14307714186E+04  0.17300000000E+03 0.  1.
         -6    1    1    2    0  503 -0.14736547050E+03 -0.28732803254E+03  0.13004538910E+03  0.38873484974E+03  0.17300000000E+03 0. -1.
<mgrwt>
<rscale>  2 0.36633725E+03</rscale>
<asrwt>0</asrwt>
<pdfrwt beam="1">  1       21 0.25635609E+00 0.36633725E+03</pdfrwt>
<pdfrwt beam="2">  1       21 0.23567939E-01 0.36633725E+03</pdfrwt>
<totfact> 0.88623733E+02</totfact>
</mgrwt>
</event>
<event>
 4    1  0.4441180E+000  0.1732126E+03  0.7546771E-02  0.1174538E+00
         21   -1    0    0  501  502  0.00000000000E+00  0.00000000000E+00  0.56117367825E+03  0.56117367825E+03  0.00000000000E+00 0. -1.
         21   -1    0    0  502  503 -0.00000000000E+00 -0.00000000000E+00 -0.55204927040E+02  0.55204927040E+02  0.00000000000E+00 0. -1.
          6    1    1    2  501    0 -0.66328283316E+01 -0.54410809613E+01  0.30771326680E+03  0.35311478918E+03  0.17300000000E+03 0. -1.
         -6    1    1    2    0  503  0.66328283316E+01  0.54410809613E+01  0.19825548441E+03  0.26326381611E+03  0.17300000000E+03 0. -1.
<mgrwt>
<rscale>  2 0.17321259E+03</rscale>
<asrwt>0</asrwt>
<pdfrwt beam="1">  1       21 0.86334408E-01 0.17321259E+03</pdfrwt>
<pdfrwt beam="2">  1       21 0.84930661E-02 0.17321259E+03</pdfrwt>
<totfact> 0.12592223E+05</totfact>
</mgrwt>
</event>
<event>
 4    1  0.4441180E+000  0.2276886E+03  0.7546771E-02  0.1128277E+00
         21   -1    0    0  501  502  0.00000000000E+00  0.00000000000E+00  0.23479162861E+03  0.23479162861E+03  0.00000000000E+00 0.  1.
         21   -1    0    0  502  503 -0.00000000000E+00 -0.00000000000E+00 -0.31867499503E+03  0.31867499503E+03  0.00000000000E+00 0.  1.
          6    1    1    2  501    0 -0.47229033896E+02 -0.14029434657E+03  0.11142196733E+03  0.25348952666E+03  0.17300000000E+03 0.  1.
         -6    1    1    2    0  503  0.47229033896E+02  0.14029434657E+03 -0.19530533375E+03  0.29997709698E+03  0.17300000000E+03 0.  1.
<mgrwt>
<rscale>  2 0.22768857E+03</rscale>
<asrwt>0</asrwt>
<pdfrwt beam="1">  1       21 0.36121789E-01 0.22768857E+03</pdfrwt>
<pdfrwt beam="2">  1       21 0.49026922E-01 0.22768857E+03</pdfrwt>
<totfact> 0.28798414E+04</totfact>
</mgrwt>
</event>
<event>
 4    1  0.4441180E+000  0.1843870E+03  0.7546771E-02  0.1163624E+00
         21   -1    0    0  503  502  0.00000000000E+00  0.00000000000E+00  0.13857958310E+03  0.13857958310E+03  0.00000000000E+00 0. -1.
         21   -1    0    0  501  503 -0.00000000000E+00 -0.00000000000E+00 -0.24945754004E+03  0.24945754004E+03  0.00000000000E+00 0. -1.
          6    1    1    2  501    0 -0.54264259016E+02  0.33540136432E+02 -0.80377950146E+02  0.20114463808E+03  0.17300000000E+03 0. -1.
         -6    1    1    2    0  502  0.54264259016E+02 -0.33540136432E+02 -0.30500006790E+02  0.18689248506E+03  0.17300000000E+03 0. -1.
<mgrwt>
<rscale>  2 0.18438696E+03</rscale>
<asrwt>0</asrwt>
<pdfrwt beam="1">  1       21 0.21319936E-01 0.18438696E+03</pdfrwt>
<pdfrwt beam="2">  1       21 0.38378083E-01 0.18438696E+03</pdfrwt>
<totfact> 0.13444731E+05</totfact>
</mgrwt>
</event>
<event>
 4    1  0.4441180E+000  0.3407223E+03  0.7546771E-02  0.1066489E+00
         21   -1    0    0  501  502  0.00000000000E+00  0.00000000000E+00  0.18515909020E+03  0.18515909020E+03  0.00000000000E+00 0. -1.
         21   -1    0    0  502  503 -0.00000000000E+00 -0.00000000000E+00 -0.62723777579E+03  0.62723777579E+03  0.00000000000E+00 0.  1.
          6    1    1    2  501    0  0.29258738756E+03 -0.23564617630E+02 -0.21285875136E+03  0.40174683395E+03  0.17300000000E+03 0. -1.
         -6    1    1    2    0  503 -0.29258738756E+03  0.23564617630E+02 -0.22921993424E+03  0.41065003204E+03  0.17300000000E+03 0.  1.
<mgrwt>
<rscale>  2 0.34072228E+03</rscale>
<asrwt>0</asrwt>
<pdfrwt beam="1">  1       21 0.28486014E-01 0.34072228E+03</pdfrwt>
<pdfrwt beam="2">  1       21 0.96498118E-01 0.34072228E+03</pdfrwt>
<totfact> 0.97198745E+03</totfact>
</mgrwt>
</event>
<event>
 4    1  0.4441180E+000  0.1845304E+03  0.7546771E-02  0.1163489E+00
         21   -1    0    0  503  502  0.00000000000E+00  0.00000000000E+00  0.49647089917E+03  0.49647089917E+03  0.00000000000E+00 0.  1.
         21   -1    0    0  501  503 -0.00000000000E+00 -0.00000000000E+00 -0.15934716029E+03  0.15934716029E+03  0.00000000000E+00 0.  1.
          6    1    1    2  501    0  0.64123790132E+02 -0.32578264278E+01 -0.78911642657E+02  0.20069509521E+03  0.17300000000E+03 0.  1.
         -6    1    1    2    0  502 -0.64123790132E+02  0.32578264278E+01  0.41603538154E+03  0.45512296425E+03  0.17300000000E+03 0.  1.
<mgrwt>
<rscale>  2 0.18453041E+03</rscale>
<asrwt>0</asrwt>
<pdfrwt beam="1">  1       21 0.76380138E-01 0.18453041E+03</pdfrwt>
<pdfrwt beam="2">  1       21 0.24514948E-01 0.18453041E+03</pdfrwt>
<totfact> 0.24112355E+04</totfact>
</mgrwt>
</event>
<event>
 4    1  0.4441180E+000  0.4168297E+03  0.7546771E-02  0.1038103E+00
         21   -1    0    0  501  502  0.00000000000E+00  0.00000000000E+00  0.95671410578E+03  0.95671410578E+03  0.00000000000E+00 0.  1.
         21   -1    0    0  502  503 -0.00000000000E+00 -0.00000000000E+00 -0.19158059700E+03  0.19158059700E+03  0.00000000000E+00 0. -1.
          6    1    1    2  501    0  0.26220495271E+02  0.37832592632E+03  0.51356026808E+03  0.66143115276E+03  0.17300000000E+03 0. -1.
         -6    1    1    2    0  503 -0.26220495271E+02 -0.37832592632E+03  0.25157324071E+03  0.48686355002E+03  0.17300000000E+03 0.  1.
<mgrwt>
<rscale>  2 0.41682973E+03</rscale>
<asrwt>0</asrwt>
<pdfrwt beam="1">  1       21 0.14718678E+00 0.41682973E+03</pdfrwt>
<pdfrwt beam="2">  1       21 0.29473939E-01 0.41682973E+03</pdfrwt>
<totfact> 0.30299253E+03</totfact>
</mgrwt>
</event>
<event>
 4    1  0.4441180E+000  0.2596496E+03  0.7546771E-02  0.1107354E+00
         21   -1    0    0  501  502  0.00000000000E+00  0.00000000000E+00  0.48738320840E+03  0.48738320840E+03  0.00000000000E+00 0. -1.
         21   -1    0    0  502  503 -0.00000000000E+00 -0.00000000000E+00 -0.17138304502E+03  0.17138304502E+03  0.00000000000E+00 0. -1.
          6    1    1    2  501    0  0.17725185597E+03 -0.77914774579E+02  0.13340488304E+02  0.25999211752E+03  0.17300000000E+03 0. -1.
         -6    1    1    2    0  503 -0.17725185597E+03  0.77914774579E+02  0.30265967508E+03  0.39877413590E+03  0.17300000000E+03 0. -1.
<mgrwt>
<rscale>  2 0.25964963E+03</rscale>
<asrwt>0</asrwt>
<pdfrwt beam="1">  1       21 0.74982031E-01 0.25964963E+03</pdfrwt>
<pdfrwt beam="2">  1       21 0.26366623E-01 0.25964963E+03</pdfrwt>
<totfact> 0.20995789E+04</totfact>
</mgrwt>
</event>
<event>
 4    1  0.4441180E+000  0.2071219E+03  0.7546771E-02  0.1143866E+00
         21   -1    0    0  501  502  0.00000000000E+00  0.00000000000E+00  0.14560328539E+03  0.14560328539E+03  0.00000000000E+00 0.  1.
         21   -1    0    0  502  503 -0.00000000000E+00 -0.00000000000E+00 -0.53259415650E+03  0.53259415650E+03  0.00000000000E+00 0. -1.
          6    1    1    2  501    0 -0.60964397056E+02  0.96196743325E+02  0.33167951883E+02  0.20976077843E+03  0.17300000000E+03 0.  1.
         -6    1    1    2    0  503  0.60964397056E+02 -0.96196743325E+02 -0.42015882300E+03  0.46843666347E+03  0.17300000000E+03 0. -1.
<mgrwt>
<rscale>  2 0.20712188E+03</rscale>
<asrwt>0</asrwt>
<pdfrwt beam="1">  1       21 0.22400506E-01 0.20712188E+03</pdfrwt>
<pdfrwt beam="2">  1       21 0.81937562E-01 0.20712188E+03</pdfrwt>
<totfact> 0.24101532E+04</totfact>
</mgrwt>
</event>
<event>
 4    1  0.4441180E+000  0.2744520E+03  0.7546771E-02  0.1098758E+00
         21   -1    0    0  503  502  0.00000000000E+00  0.00000000000E+00  0.41690579337E+03  0.41690579337E+03  0.00000000000E+00 0.  1.
         21   -1    0    0  501  503 -0.00000000000E+00 -0.00000000000E+00 -0.23773871790E+03  0.23773871790E+03  0.00000000000E+00 0.  1.
          6    1    1    2  501    0  0.82328216020E+02  0.19651197864E+03 -0.70781884693E+02  0.28343247539E+03  0.17300000000E+03 0.  1.
         -6    1    1    2    0  502 -0.82328216020E+02 -0.19651197864E+03  0.24994896016E+03  0.37121203589E+03  0.17300000000E+03 0.  1.
<mgrwt>
<rscale>  2 0.27445199E+03</rscale>
<asrwt>0</asrwt>
<pdfrwt beam="1">  1       21 0.64139353E-01 0.27445199E+03</pdfrwt>
<pdfrwt beam="2">  1       21 0.36575187E-01 0.27445199E+03</pdfrwt>
<totfact> 0.15467001E+04</totfact>
</mgrwt>
</event>
<event>
 4    1  0.4441180E+000  0.1828297E+03  0.7546771E-02  0.1165092E+00
         21   -1    0    0  503  502  0.00000000000E+00  0.00000000000E+00  0.24548878190E+03  0.24548878190E+03  0.00000000000E+00 0. -1.
         21   -1    0    0  501  503 -0.00000000000E+00 -0.00000000000E+00 -0.19467734289E+03  0.19467734289E+03  0.00000000000E+00 0. -1.
          6    1    1    2  501    0  0.14527030891E+02 -0.57329324886E+02 -0.95252552691E+02  0.20615463835E+03  0.17300000000E+03 0. -1.
         -6    1    1    2    0  502 -0.14527030891E+02  0.57329324886E+02  0.14606399170E+03  0.23401148645E+03  0.17300000000E+03 0. -1.
<mgrwt>
<rscale>  2 0.18282966E+03</rscale>
<asrwt>0</asrwt>
<pdfrwt beam="1">  1       21 0.37767505E-01 0.18282966E+03</pdfrwt>
<pdfrwt beam="2">  1       21 0.29950360E-01 0.18282966E+03</pdfrwt>
<totfact> 0.72579212E+04</totfact>
</mgrwt>
</event>
<event>
 4    1  0.4441180E+000  0.1830541E+03  0.7546771E-02  0.1164880E+00
         21   -1    0    0  503  502  0.00000000000E+00  0.00000000000E+00  0.84270552794E+02  0.84270552794E+02  0.00000000000E+00 0.  1.
         21   -1    0    0  501  503 -0.00000000000E+00 -0.00000000000E+00 -0.92110212115E+03  0.92110212115E+03  0.00000000000E+00 0.  1.
          6    1    1    2  501    0 -0.57440558577E+02  0.16745193865E+02 -0.79737144287E+03  0.81811370676E+03  0.17300000000E+03 0.  1.
         -6    1    1    2    0  502  0.57440558577E+02 -0.16745193865E+02 -0.39460125489E+02  0.18725896718E+03  0.17300000000E+03 0.  1.
<mgrwt>
<rscale>  2 0.18305414E+03</rscale>
<asrwt>0</asrwt>
<pdfrwt beam="1">  1       21 0.12964701E-01 0.18305414E+03</pdfrwt>
<pdfrwt beam="2">  1       21 0.14170802E+00 0.18305414E+03</pdfrwt>
<totfact> 0.17828629E+04</totfact>
</mgrwt>
</event>
<event>
 4    1  0.4441180E+000  0.1767559E+03  0.7546771E-02  0.1170980E+00
         21   -1    0    0  503  502  0.00000000000E+00  0.00000000000E+00  0.88670548355E+03  0.88670548355E+03  0.00000000000E+00 0.  1.
         21   -1    0    0  501  503 -0.00000000000E+00 -0.00000000000E+00 -0.35633504730E+02  0.35633504730E+02  0.00000000000E+00 0.  1.
          6    1    1    2  501    0  0.16759536990E+02 -0.32136743650E+02  0.37673786497E+03  0.41614188840E+03  0.17300000000E+03 0.  1.
         -6    1    1    2    0  502 -0.16759536990E+02  0.32136743650E+02  0.47433411384E+03  0.50619709988E+03  0.17300000000E+03 0.  1.
<mgrwt>
<rscale>  2 0.17675591E+03</rscale>
<asrwt>0</asrwt>
<pdfrwt beam="1">  1       21 0.13641621E+00 0.17675591E+03</pdfrwt>
<pdfrwt beam="2">  1       21 0.54820783E-02 0.17675591E+03</pdfrwt>
<totfact> 0.88661145E+04</totfact>
</mgrwt>
</event>
<event>
 4    1  0.4441180E+000  0.2222045E+03  0.7546771E-02  0.1132250E+00
         21   -1    0    0  503  502  0.00000000000E+00  0.00000000000E+00  0.23211161514E+03  0.23211161514E+03  0.00000000000E+00 0. -1.
         21   -1    0    0  501  503 -0.00000000000E+00 -0.00000000000E+00 -0.62967991602E+03  0.62967991602E+03  0.00000000000E+00 0.  1.
          6    1    1    2  501    0 -0.64783670021E+02 -0.12348651368E+03 -0.54942242761E+03  0.59265491386E+03  0.17300000000E+03 0.  1.
         -6    1    1    2    0  502  0.64783670021E+02  0.12348651368E+03  0.15185412673E+03  0.26913661729E+03  0.17300000000E+03 0. -1.
<mgrwt>
<rscale>  2 0.22220451E+03</rscale>
<asrwt>0</asrwt>
<pdfrwt beam="1">  1       21 0.35709480E-01 0.22220451E+03</pdfrwt>
<pdfrwt beam="2">  1       21 0.96873832E-01 0.22220451E+03</pdfrwt>
<totfact> 0.65488650E+03</totfact>
</mgrwt>
</event>
<event>
 4    1  0.4441180E+000  0.2670638E+03  0.7546771E-02  0.1102972E+00
         21   -1    0    0  503  502  0.00000000000E+00  0.00000000000E+00  0.12843142726E+03  0.12843142726E+03  0.00000000000E+00 0.  1.
         21   -1    0    0  501  503 -0.00000000000E+00 -0.00000000000E+00 -0.63491778127E+03  0.63491778127E+03  0.00000000000E+00 0.  1.
          6    1    1    2  501    0  0.19771467753E+03  0.47989459039E+02 -0.38836671381E+03  0.47132980628E+03  0.17300000000E+03 0.  1.
         -6    1    1    2    0  502 -0.19771467753E+03 -0.47989459039E+02 -0.11811964020E+03  0.29201940225E+03  0.17300000000E+03 0.  1.
<mgrwt>
<rscale>  2 0.26706382E+03</rscale>
<asrwt>0</asrwt>
<pdfrwt beam="1">  1       21 0.19758681E-01 0.26706382E+03</pdfrwt>
<pdfrwt beam="2">  1       21 0.97679659E-01 0.26706382E+03</pdfrwt>
<totfact> 0.19676789E+04</totfact>
</mgrwt>
</event>
<event>
 4    1  0.4441180E+000  0.2131771E+03  0.7546771E-02  0.1139074E+00
         21   -1    0    0  503  502  0.00000000000E+00  0.00000000000E+00  0.60029964185E+02  0.60029964185E+02  0.00000000000E+00 0.  1.
         21   -1    0    0  501  503 -0.00000000000E+00 -0.00000000000E+00 -0.12822913149E+04  0.12822913149E+04  0.00000000000E+00 0. -1.
          6    1    1    2  501    0  0.13536169311E+01  0.12455374525E+03 -0.10406878208E+04  0.10622973256E+04  0.17300000000E+03 0. -1.
         -6    1    1    2    0  502 -0.13536169311E+01 -0.12455374525E+03 -0.18157352994E+03  0.28002395346E+03  0.17300000000E+03 0.  1.
<mgrwt>
<rscale>  2 0.21317708E+03</rscale>
<asrwt>0</asrwt>
<pdfrwt beam="1">  1       21 0.92353787E-02 0.21317708E+03</pdfrwt>
<pdfrwt beam="2">  1       21 0.19727560E+00 0.21317708E+03</pdfrwt>
<totfact> 0.12842293E+04</totfact>
</mgrwt>
</event>
<event>
 4    1  0.4441180E+000  0.1786654E+03  0.7546771E-02  0.1169101E+00
         21   -1    0    0  501  502  0.00000000000E+00  0.00000000000E+00  0.75165421534E+02  0.75165421534E+02  0.00000000000E+00 0. -1.
         21   -1    0    0  502  503 -0.00000000000E+00 -0.00000000000E+00 -0.57060127090E+03  0.57060127090E+03  0.00000000000E+00 0. -1.
          6    1    1    2  501    0 -0.42401347606E+02 -0.13944534010E+02 -0.41099948160E+03  0.44815387780E+03  0.17300000000E+03 0. -1.
         -6    1    1    2    0  503  0.42401347606E+02  0.13944534010E+02 -0.84436367763E+02  0.19761281464E+03  0.17300000000E+03 0. -1.
<mgrwt>
<rscale>  2 0.17866540E+03</rscale>
<asrwt>0</asrwt>
<pdfrwt beam="1">  1       21 0.11563911E-01 0.17866540E+03</pdfrwt>
<pdfrwt beam="2">  1       21 0.87784811E-01 0.17866540E+03</pdfrwt>
<totfact> 0.70203283E+04</totfact>
</mgrwt>
</event>
<event>
 4    1  0.4441180E+000  0.2239331E+03  0.7546771E-02  0.1130984E+00
         21   -1    0    0  501  502  0.00000000000E+00  0.00000000000E+00  0.64337976644E+02  0.64337976644E+02  0.00000000000E+00 0. -1.
         21   -1    0    0  502  503 -0.00000000000E+00 -0.00000000000E+00 -0.77954790951E+03  0.77954790951E+03  0.00000000000E+00 0.  1.
          6    1    1    2  501    0 -0.14189007586E+03  0.91770368871E+01 -0.35210437753E+03  0.41728108549E+03  0.17300000000E+03 0. -1.
         -6    1    1    2    0  503  0.14189007586E+03 -0.91770368871E+01 -0.36310555533E+03  0.42660480066E+03  0.17300000000E+03 0. -1.
<mgrwt>
<rscale>  2 0.22393305E+03</rscale>
<asrwt>0</asrwt>
<pdfrwt beam="1">  1       21 0.98981506E-02 0.22393305E+03</pdfrwt>
<pdfrwt beam="2">  1       21 0.11993044E+00 0.22393305E+03</pdfrwt>
<totfact> 0.42980528E+04</totfact>
</mgrwt>
</event>
<event>
 4    1  0.4441180E+000  0.1855614E+03  0.7546771E-02  0.1162527E+00
         21   -1    0    0  503  502  0.00000000000E+00  0.00000000000E+00  0.21085164106E+02  0.21085164106E+02  0.00000000000E+00 0.  1.
         21   -1    0    0  501  503 -0.00000000000E+00 -0.00000000000E+00 -0.17665857761E+04  0.17665857761E+04  0.00000000000E+00 0. -1.
          6    1    1    2  501    0  0.71837845030E+01  0.66726466052E+02 -0.62699851652E+03  0.65388085134E+03  0.17300000000E+03 0.  1.
         -6    1    1    2    0  502 -0.71837845030E+01 -0.66726466052E+02 -0.11185020955E+04  0.11337900889E+04  0.17300000000E+03 0. -1.
<mgrwt>
<rscale>  2 0.18556139E+03</rscale>
<asrwt>0</asrwt>
<pdfrwt beam="1">  1       21 0.32438703E-02 0.18556139E+03</pdfrwt>
<pdfrwt beam="2">  1       21 0.27178252E+00 0.18556139E+03</pdfrwt>
<totfact> 0.27769623E+04</totfact>
</mgrwt>
</event>
<event>
 4    1  0.4441180E+000  0.1793415E+03  0.7546771E-02  0.1168442E+00
         21   -1    0    0  503  502  0.00000000000E+00  0.00000000000E+00  0.27309149924E+02  0.27309149924E+02  0.00000000000E+00 0. -1.
         21   -1    0    0  501  503 -0.00000000000E+00 -0.00000000000E+00 -0.12750544111E+04  0.12750544111E+04  0.00000000000E+00 0. -1.
          6    1    1    2  501    0 -0.41106770402E+01  0.47089989143E+02 -0.80376098525E+03  0.82352600818E+03  0.17300000000E+03 0. -1.
         -6    1    1    2    0  502  0.41106770402E+01 -0.47089989143E+02 -0.44398427596E+03  0.47883755287E+03  0.17300000000E+03 0. -1.
<mgrwt>
<rscale>  2 0.17934148E+03</rscale>
<asrwt>0</asrwt>
<pdfrwt beam="1">  1       21 0.42014080E-02 0.17934148E+03</pdfrwt>
<pdfrwt beam="2">  1       21 0.19616220E+00 0.17934148E+03</pdfrwt>
<totfact> 0.51736983E+04</totfact>
</mgrwt>
</event>
<event>
 4    1  0.4441180E+000  0.2680868E+03  0.7546771E-02  0.1102380E+00
         21   -1    0    0  501  502  0.00000000000E+00  0.00000000000E+00  0.16341248444E+03  0.16341248444E+03  0.00000000000E+00 0.  1.
         21   -1    0    0  502  503 -0.00000000000E+00 -0.00000000000E+00 -0.83619941113E+03  0.83619941113E+03  0.00000000000E+00 0. -1.
          6    1    1    2  501    0  0.19196979981E+03  0.71338049692E+02  0.77244310296E+01  0.26819803915E+03  0.17300000000E+03 0. -1.
         -6    1    1    2    0  503 -0.19196979981E+03 -0.71338049692E+02 -0.68051135772E+03  0.73141385642E+03  0.17300000000E+03 0. -1.
<mgrwt>
<rscale>  2 0.26808678E+03</rscale>
<asrwt>0</asrwt>
<pdfrwt beam="1">  1       21 0.25140382E-01 0.26808678E+03</pdfrwt>
<pdfrwt beam="2">  1       21 0.12864606E+00 0.26808678E+03</pdfrwt>
<totfact> 0.63170240E+03</totfact>
</mgrwt>
</event>
<event>
 4    1  0.4441180E+000  0.2121129E+03  0.7546771E-02  0.1139904E+00
         21   -1    0    0  501  502  0.00000000000E+00  0.00000000000E+00  0.11522701166E+03  0.11522701166E+03  0.00000000000E+00 0. -1.
         21   -1    0    0  502  503 -0.00000000000E+00 -0.00000000000E+00 -0.97174413112E+03  0.97174413112E+03  0.00000000000E+00 0. -1.
          6    1    1    2  501    0  0.99406452251E+02 -0.71980973977E+02 -0.79143128207E+01  0.21226054676E+03  0.17300000000E+03 0. -1.
         -6    1    1    2    0  503 -0.99406452251E+02  0.71980973977E+02 -0.84860280664E+03  0.87471059603E+03  0.17300000000E+03 0. -1.
<mgrwt>
<rscale>  2 0.21211295E+03</rscale>
<asrwt>0</asrwt>
<pdfrwt beam="1">  1       21 0.17727233E-01 0.21211295E+03</pdfrwt>
<pdfrwt beam="2">  1       21 0.14949909E+00 0.21211295E+03</pdfrwt>
<totfact> 0.85804859E+03</totfact>
</mgrwt>
</event>
<event>
 4    1  0.4441180E+000  0.2882159E+03  0.7546771E-02  0.1091284E+00
         21   -1    0    0  501  502  0.00000000000E+00  0.00000000000E+00  0.12694094546E+03  0.12694094546E+03  0.00000000000E+00 0. -1.
         21   -1    0    0  502  503 -0.00000000000E+00 -0.00000000000E+00 -0.68996945725E+03  0.68996945725E+03  0.00000000000E+00 0. -1.
          6    1    1    2  501    0 -0.21468057844E+03 -0.83974144751E+02 -0.18875609789E+03  0.34452470483E+03  0.17300000000E+03 0. -1.
         -6    1    1    2    0  503  0.21468057844E+03  0.83974144751E+02 -0.37427241391E+03  0.47238569788E+03  0.17300000000E+03 0. -1.
<mgrwt>
<rscale>  2 0.28821590E+03</rscale>
<asrwt>0</asrwt>
<pdfrwt beam="1">  1       21 0.19529376E-01 0.28821590E+03</pdfrwt>
<pdfrwt beam="2">  1       21 0.10614915E+00 0.28821590E+03</pdfrwt>
<totfact> 0.16302935E+04</totfact>
</mgrwt>
</event>
<event>
 4    1  0.4441180E+000  0.2137940E+03  0.7546771E-02  0.1138596E+00
         21   -1    0    0  501  502  0.00000000000E+00  0.00000000000E+00  0.21490140790E+03  0.21490140790E+03  0.00000000000E+00 0. -1.
         21   -1    0    0  502  503 -0.00000000000E+00 -0.00000000000E+00 -0.23244534189E+03  0.23244534189E+03  0.00000000000E+00 0. -1.
          6    1    1    2  501    0  0.88697506917E+02  0.88947321388E+02 -0.73975467335E+02  0.22623050962E+03  0.17300000000E+03 0. -1.
         -6    1    1    2    0  503 -0.88697506917E+02 -0.88947321388E+02  0.56431533344E+02  0.22111624018E+03  0.17300000000E+03 0. -1.
<mgrwt>
<rscale>  2 0.21379400E+03</rscale>
<asrwt>0</asrwt>
<pdfrwt beam="1">  1       21 0.33061755E-01 0.21379400E+03</pdfrwt>
<pdfrwt beam="2">  1       21 0.35760822E-01 0.21379400E+03</pdfrwt>
<totfact> 0.65790480E+04</totfact>
</mgrwt>
</event>
<event>
 4    1  0.4441180E+000  0.2082004E+03  0.7546771E-02  0.1142999E+00
         21   -1    0    0  501  502  0.00000000000E+00  0.00000000000E+00  0.69045105899E+02  0.69045105899E+02  0.00000000000E+00 0.  1.
         21   -1    0    0  502  503 -0.00000000000E+00 -0.00000000000E+00 -0.70927650524E+03  0.70927650524E+03  0.00000000000E+00 0.  1.
          6    1    1    2  501    0  0.22678401266E+02  0.11359615148E+03 -0.18822820813E+03  0.28067285913E+03  0.17300000000E+03 0.  1.
         -6    1    1    2    0  503 -0.22678401266E+02 -0.11359615148E+03 -0.45200319121E+03  0.49764875201E+03  0.17300000000E+03 0.  1.
<mgrwt>
<rscale>  2 0.20820037E+03</rscale>
<asrwt>0</asrwt>
<pdfrwt beam="1">  1       21 0.10622324E-01 0.20820037E+03</pdfrwt>
<pdfrwt beam="2">  1       21 0.10911946E+00 0.20820037E+03</pdfrwt>
<totfact> 0.48166935E+04</totfact>
</mgrwt>
</event>
<event>
 4    1  0.4441180E+000  0.2005263E+03  0.7546771E-02  0.1149296E+00
         21   -1    0    0  503  502  0.00000000000E+00  0.00000000000E+00  0.11274064339E+03  0.11274064339E+03  0.00000000000E+00 0.  1.
         21   -1    0    0  501  503 -0.00000000000E+00 -0.00000000000E+00 -0.41839287682E+03  0.41839287682E+03  0.00000000000E+00 0. -1.
          6    1    1    2  501    0 -0.10123887556E+03  0.56991236998E+01 -0.50822019946E+02  0.20686630380E+03  0.17300000000E+03 0.  1.
         -6    1    1    2    0  502  0.10123887556E+03 -0.56991236998E+01 -0.25483021349E+03  0.32426721642E+03  0.17300000000E+03 0. -1.
<mgrwt>
<rscale>  2 0.20052628E+03</rscale>
<asrwt>0</asrwt>
<pdfrwt beam="1">  1       21 0.17344714E-01 0.20052628E+03</pdfrwt>
<pdfrwt beam="2">  1       21 0.64368135E-01 0.20052628E+03</pdfrwt>
<totfact> 0.66691737E+04</totfact>
</mgrwt>
</event>
<event>
 4    1  0.4441180E+000  0.1831012E+03  0.7546771E-02  0.1164835E+00
         21   -1    0    0  503  502  0.00000000000E+00  0.00000000000E+00  0.48620524848E+02  0.48620524848E+02  0.00000000000E+00 0. -1.
         21   -1    0    0  501  503 -0.00000000000E+00 -0.00000000000E+00 -0.70341957909E+03  0.70341957909E+03  0.00000000000E+00 0. -1.
          6    1    1    2  501    0 -0.45734241518E+02 -0.38799948305E+02 -0.38020855895E+03  0.42200071698E+03  0.17300000000E+03 0. -1.
         -6    1    1    2    0  502  0.45734241518E+02  0.38799948305E+02 -0.27459049529E+03  0.33003938695E+03  0.17300000000E+03 0. -1.
<mgrwt>
<rscale>  2 0.18310122E+03</rscale>
<asrwt>0</asrwt>
<pdfrwt beam="1">  1       21 0.74800822E-02 0.18310122E+03</pdfrwt>
<pdfrwt beam="2">  1       21 0.10821838E+00 0.18310122E+03</pdfrwt>
<totfact> 0.92000185E+04</totfact>
</mgrwt>
</event>
<event>
 4    1  0.4441180E+000  0.1945566E+03  0.7546771E-02  0.1154415E+00
         21   -1    0    0  501  502  0.00000000000E+00  0.00000000000E+00  0.55439027941E+02  0.55439027941E+02  0.00000000000E+00 0.  1.
         21   -1    0    0  502  503 -0.00000000000E+00 -0.00000000000E+00 -0.86822412286E+03  0.86822412286E+03  0.00000000000E+00 0. -1.
          6    1    1    2  501    0  0.42453470321E+02 -0.78236729162E+02 -0.19294941361E+03  0.27401050918E+03  0.17300000000E+03 0.  1.
         -6    1    1    2    0  503 -0.42453470321E+02  0.78236729162E+02 -0.61983568131E+03  0.64965264162E+03  0.17300000000E+03 0.  1.
<mgrwt>
<rscale>  2 0.19455663E+03</rscale>
<asrwt>0</asrwt>
<pdfrwt beam="1">  1       21 0.85290815E-02 0.19455663E+03</pdfrwt>
<pdfrwt beam="2">  1       21 0.13357294E+00 0.19455663E+03</pdfrwt>
<totfact> 0.43268239E+04</totfact>
</mgrwt>
</event>
<event>
 4    1  0.4441180E+000  0.1889843E+03  0.7546771E-02  0.1159381E+00
         21   -1    0    0  501  502  0.00000000000E+00  0.00000000000E+00  0.63473437187E+02  0.63473437187E+02  0.00000000000E+00 0. -1.
         21   -1    0    0  502  503 -0.00000000000E+00 -0.00000000000E+00 -0.56445897071E+03  0.56445897071E+03  0.00000000000E+00 0. -1.
          6    1    1    2  501    0  0.57629594118E+02 -0.49647595112E+02 -0.26813268780E+03  0.32803992453E+03  0.17300000000E+03 0. -1.
         -6    1    1    2    0  503 -0.57629594118E+02  0.49647595112E+02 -0.23285284572E+03  0.29989248336E+03  0.17300000000E+03 0. -1.
<mgrwt>
<rscale>  2 0.18898427E+03</rscale>
<asrwt>0</asrwt>
<pdfrwt beam="1">  1       21 0.97651436E-02 0.18898427E+03</pdfrwt>
<pdfrwt beam="2">  1       21 0.86839846E-01 0.18898427E+03</pdfrwt>
<totfact> 0.96684193E+04</totfact>
</mgrwt>
</event>
<event>
 4    1  0.4441180E+000  0.1876477E+03  0.7546771E-02  0.1160600E+00
         21   -1    0    0  503  502  0.00000000000E+00  0.00000000000E+00  0.27260830426E+03  0.27260830426E+03  0.00000000000E+00 0.  1.
         21   -1    0    0  501  503 -0.00000000000E+00 -0.00000000000E+00 -0.23728169380E+03  0.23728169380E+03  0.00000000000E+00 0.  1.
          6    1    1    2  501    0 -0.46318878872E+02 -0.56010986556E+02 -0.15442809013E+03  0.24302202406E+03  0.17300000000E+03 0.  1.
         -6    1    1    2    0  502  0.46318878872E+02  0.56010986556E+02  0.18975470059E+03  0.26686797401E+03  0.17300000000E+03 0.  1.
<mgrwt>
<rscale>  2 0.18764773E+03</rscale>
<asrwt>0</asrwt>
<pdfrwt beam="1">  1       21 0.41939739E-01 0.18764773E+03</pdfrwt>
<pdfrwt beam="2">  1       21 0.36504876E-01 0.18764773E+03</pdfrwt>
<totfact> 0.39701147E+04</totfact>
</mgrwt>
</event>
<event>
 4    1  0.4441180E+000  0.1772227E+03  0.7546771E-02  0.1170518E+00
         21   -1    0    0  503  502  0.00000000000E+00  0.00000000000E+00  0.93356378332E+02  0.93356378332E+02  0.00000000000E+00 0.  1.
         21   -1    0    0  501  503 -0.00000000000E+00 -0.00000000000E+00 -0.62542673481E+03  0.62542673481E+03  0.00000000000E+00 0.  1.
          6    1    1    2  501    0  0.22008016510E+02  0.31536482963E+02 -0.51033659552E+03  0.54023267513E+03  0.17300000000E+03 0.  1.
         -6    1    1    2    0  502 -0.22008016510E+02 -0.31536482963E+02 -0.21733760953E+02  0.17855043801E+03  0.17300000000E+03 0.  1.
<mgrwt>
<rscale>  2 0.17722275E+03</rscale>
<asrwt>0</asrwt>
<pdfrwt beam="1">  1       21 0.14362520E-01 0.17722275E+03</pdfrwt>
<pdfrwt beam="2">  1       21 0.96219497E-01 0.17722275E+03</pdfrwt>
<totfact> 0.38480743E+04</totfact>
</mgrwt>
</event>
<event>
 4    1  0.4441180E+000  0.2031232E+03  0.7546771E-02  0.1147130E+00
         21   -1    0    0  501  502  0.00000000000E+00  0.00000000000E+00  0.21869971847E+03  0.21869971847E+03  0.00000000000E+00 0. -1.
         21   -1    0    0  502  503 -0.00000000000E+00 -0.00000000000E+00 -0.18866951430E+03  0.18866951430E+03  0.00000000000E+00 0. -1.
          6    1    1    2  501    0  0.79720987924E+02 -0.70530752275E+02  0.13293814971E+02  0.20355772756E+03  0.17300000000E+03 0. -1.
         -6    1    1    2    0  503 -0.79720987924E+02  0.70530752275E+02  0.16736389196E+02  0.20381150521E+03  0.17300000000E+03 0. -1.
<mgrwt>
<rscale>  2 0.20312317E+03</rscale>
<asrwt>0</asrwt>
<pdfrwt beam="1">  1       21 0.33646111E-01 0.20312317E+03</pdfrwt>
<pdfrwt beam="2">  1       21 0.29026079E-01 0.20312317E+03</pdfrwt>
<totfact> 0.96271895E+04</totfact>
</mgrwt>
</event>
<event>
 4    1  0.4441180E+000  0.2778400E+03  0.7546771E-02  0.1096875E+00
         21   -1    0    0  503  502  0.00000000000E+00  0.00000000000E+00  0.29739158094E+03  0.29739158094E+03  0.00000000000E+00 0.  1.
         21   -1    0    0  501  503 -0.00000000000E+00 -0.00000000000E+00 -0.42436342181E+03  0.42436342181E+03  0.00000000000E+00 0. -1.
          6    1    1    2  501    0 -0.20084080393E+03 -0.83240840526E+02 -0.28836846656E+03  0.40043905724E+03  0.17300000000E+03 0. -1.
         -6    1    1    2    0  502  0.20084080393E+03  0.83240840526E+02  0.16139662569E+03  0.32131594551E+03  0.17300000000E+03 0.  1.
<mgrwt>
<rscale>  2 0.27784000E+03</rscale>
<asrwt>0</asrwt>
<pdfrwt beam="1">  1       21 0.45752551E-01 0.27784000E+03</pdfrwt>
<pdfrwt beam="2">  1       21 0.65286680E-01 0.27784000E+03</pdfrwt>
<totfact> 0.93978118E+03</totfact>
</mgrwt>
</event>
<event>
 4    1  0.4441180E+000  0.2013477E+03  0.7546771E-02  0.1148607E+00
         21   -1    0    0  501  502  0.00000000000E+00  0.00000000000E+00  0.36336064421E+03  0.36336064421E+03  0.00000000000E+00 0. -1.
         21   -1    0    0  502  503 -0.00000000000E+00 -0.00000000000E+00 -0.11257827004E+03  0.11257827004E+03  0.00000000000E+00 0. -1.
          6    1    1    2  501    0  0.10214130695E+03 -0.13381282623E+02  0.14788859533E+03  0.24982382180E+03  0.17300000000E+03 0. -1.
         -6    1    1    2    0  503 -0.10214130695E+03  0.13381282623E+02  0.10289377884E+03  0.22611509245E+03  0.17300000000E+03 0. -1.
<mgrwt>
<rscale>  2 0.20134772E+03</rscale>
<asrwt>0</asrwt>
<pdfrwt beam="1">  1       21 0.55901637E-01 0.20134772E+03</pdfrwt>
<pdfrwt beam="2">  1       21 0.17319734E-01 0.20134772E+03</pdfrwt>
<totfact> 0.90513002E+04</totfact>
</mgrwt>
</event>
<event>
 4    1  0.4441180E+000  0.2738768E+03  0.7546771E-02  0.1099081E+00
         21   -1    0    0  503  502  0.00000000000E+00  0.00000000000E+00  0.22066194257E+03  0.22066194257E+03  0.00000000000E+00 0.  1.
         21   -1    0    0  501  503 -0.00000000000E+00 -0.00000000000E+00 -0.56646458001E+03  0.56646458001E+03  0.00000000000E+00 0. -1.
          6    1    1    2  501    0  0.15901459078E+03  0.14069073845E+03 -0.42178714194E+03  0.50290448106E+03  0.17300000000E+03 0. -1.
         -6    1    1    2    0  502 -0.15901459078E+03 -0.14069073845E+03  0.75984504493E+02  0.28422204153E+03  0.17300000000E+03 0. -1.
<mgrwt>
<rscale>  2 0.27387684E+03</rscale>
<asrwt>0</asrwt>
<pdfrwt beam="1">  1       21 0.33947992E-01 0.27387684E+03</pdfrwt>
<pdfrwt beam="2">  1       21 0.87148396E-01 0.27387684E+03</pdfrwt>
<totfact> 0.90019777E+03</totfact>
</mgrwt>
</event>
<event>
 4    1  0.4441180E+000  0.1979277E+03  0.7546771E-02  0.1151499E+00
         21   -1    0    0  501  502  0.00000000000E+00  0.00000000000E+00  0.13143407946E+03  0.13143407946E+03  0.00000000000E+00 0.  1.
         21   -1    0    0  502  503 -0.00000000000E+00 -0.00000000000E+00 -0.99311136409E+03  0.99311136409E+03  0.00000000000E+00 0.  1.
          6    1    1    2  501    0  0.48789705163E+02  0.82860889323E+02  0.39549323237E+02  0.20184031133E+03  0.17300000000E+03 0.  1.
         -6    1    1    2    0  503 -0.48789705163E+02 -0.82860889323E+02 -0.90122660787E+03  0.92270513222E+03  0.17300000000E+03 0.  1.
<mgrwt>
<rscale>  2 0.19792767E+03</rscale>
<asrwt>0</asrwt>
<pdfrwt beam="1">  1       21 0.20220627E-01 0.19792767E+03</pdfrwt>
<pdfrwt beam="2">  1       21 0.15278637E+00 0.19792767E+03</pdfrwt>
<totfact> 0.64114464E+03</totfact>
</mgrwt>
</event>
<event>
 4    1  0.4441180E+000  0.1736243E+03  0.7546771E-02  0.1174120E+00
         21   -1    0    0  501  502  0.00000000000E+00  0.00000000000E+00  0.34808084264E+02  0.34808084264E+02  0.00000000000E+00 0.  1.
         21   -1    0    0  502  503 -0.00000000000E+00 -0.00000000000E+00 -0.10306698226E+04  0.10306698226E+04  0.00000000000E+00 0.  1.
          6    1    1    2  501    0  0.11012978347E+02  0.97532026094E+01 -0.71084313982E+03  0.73173996753E+03  0.17300000000E+03 0.  1.
         -6    1    1    2    0  503 -0.11012978347E+02 -0.97532026094E+01 -0.28501859855E+03  0.33373793937E+03  0.17300000000E+03 0.  1.
<mgrwt>
<rscale>  2 0.17362434E+03</rscale>
<asrwt>0</asrwt>
<pdfrwt beam="1">  1       21 0.53550910E-02 0.17362434E+03</pdfrwt>
<pdfrwt beam="2">  1       21 0.15856456E+00 0.17362434E+03</pdfrwt>
<totfact> 0.62394163E+04</totfact>
</mgrwt>
</event>
<event>
 4    1  0.4441180E+000  0.1844624E+03  0.7546771E-02  0.1163553E+00
         21   -1    0    0  501  502  0.00000000000E+00  0.00000000000E+00  0.14771524950E+03  0.14771524950E+03  0.00000000000E+00 0. -1.
         21   -1    0    0  502  503 -0.00000000000E+00 -0.00000000000E+00 -0.50772031987E+03  0.50772031987E+03  0.00000000000E+00 0.  1.
          6    1    1    2  501    0  0.25185555515E+02 -0.58847834833E+02  0.62221268282E+02  0.19467374270E+03  0.17300000000E+03 0. -1.
         -6    1    1    2    0  503 -0.25185555515E+02  0.58847834833E+02 -0.42222633865E+03  0.46076182667E+03  0.17300000000E+03 0.  1.
<mgrwt>
<rscale>  2 0.18446241E+03</rscale>
<asrwt>0</asrwt>
<pdfrwt beam="1">  1       21 0.22725423E-01 0.18446241E+03</pdfrwt>
<pdfrwt beam="2">  1       21 0.78110818E-01 0.18446241E+03</pdfrwt>
<totfact> 0.26475895E+04</totfact>
</mgrwt>
</event>
<event>
 4    1  0.4441180E+000  0.2070880E+03  0.7546771E-02  0.1143893E+00
         21   -1    0    0  503  502  0.00000000000E+00  0.00000000000E+00  0.20561684766E+04  0.20561684766E+04  0.00000000000E+00 0.  1.
         21   -1    0    0  501  503 -0.00000000000E+00 -0.00000000000E+00 -0.27107975501E+02  0.27107975501E+02  0.00000000000E+00 0.  1.
          6    1    1    2  501    0 -0.47494101942E+01 -0.11372716364E+03  0.51433030696E+03  0.55445566937E+03  0.17300000000E+03 0.  1.
         -6    1    1    2    0  502  0.47494101942E+01  0.11372716364E+03  0.15147301942E+04  0.15288207828E+04  0.17300000000E+03 0.  1.
<mgrwt>
<rscale>  2 0.20708796E+03</rscale>
<asrwt>0</asrwt>
<pdfrwt beam="1">  1       21 0.31633349E+00 0.20708796E+03</pdfrwt>
<pdfrwt beam="2">  1       21 0.41704594E-02 0.20708796E+03</pdfrwt>
<totfact> 0.98847126E+03</totfact>
</mgrwt>
</event>
<event>
 4    1  0.4441180E+000  0.2467214E+03  0.7546771E-02  0.1115395E+00
         21   -1    0    0  501  502  0.00000000000E+00  0.00000000000E+00  0.24301496476E+03  0.24301496476E+03  0.00000000000E+00 0. -1.
         21   -1    0    0  502  503 -0.00000000000E+00 -0.00000000000E+00 -0.26514733250E+03  0.26514733250E+03  0.00000000000E+00 0. -1.
          6    1    1    2  501    0  0.14842289462E+03 -0.94409077079E+02  0.48684233924E+02  0.25147879457E+03  0.17300000000E+03 0. -1.
         -6    1    1    2    0  503 -0.14842289462E+03  0.94409077079E+02 -0.70816601660E+02  0.25668350269E+03  0.17300000000E+03 0. -1.
<mgrwt>
<rscale>  2 0.24672136E+03</rscale>
<asrwt>0</asrwt>
<pdfrwt beam="1">  1       21 0.37386918E-01 0.24672136E+03</pdfrwt>
<pdfrwt beam="2">  1       21 0.40791897E-01 0.24672136E+03</pdfrwt>
<totfact> 0.38933605E+04</totfact>
</mgrwt>
</event>
<event>
 4    1  0.4441180E+000  0.1770524E+03  0.7546771E-02  0.1170687E+00
         21   -1    0    0  501  502  0.00000000000E+00  0.00000000000E+00  0.41450818442E+03  0.41450818442E+03  0.00000000000E+00 0.  1.
         21   -1    0    0  502  503 -0.00000000000E+00 -0.00000000000E+00 -0.77962758362E+02  0.77962758362E+02  0.00000000000E+00 0.  1.
          6    1    1    2  501    0 -0.35156069560E+02  0.13513441042E+02  0.21090331462E+03  0.27536842672E+03  0.17300000000E+03 0.  1.
         -6    1    1    2    0  503  0.35156069560E+02 -0.13513441042E+02  0.12564211144E+03  0.21710251607E+03  0.17300000000E+03 0.  1.
<mgrwt>
<rscale>  2 0.17705243E+03</rscale>
<asrwt>0</asrwt>
<pdfrwt beam="1">  1       21 0.63770489E-01 0.17705243E+03</pdfrwt>
<pdfrwt beam="2">  1       21 0.11994271E-01 0.17705243E+03</pdfrwt>
<totfact> 0.13415664E+05</totfact>
</mgrwt>
</event>
<event>
 4    1  0.4441180E+000  0.1970253E+03  0.7546771E-02  0.1152273E+00
         21   -1    0    0  501  502  0.00000000000E+00  0.00000000000E+00  0.22078512899E+03  0.22078512899E+03  0.00000000000E+00 0. -1.
         21   -1    0    0  502  503 -0.00000000000E+00 -0.00000000000E+00 -0.19431239173E+03  0.19431239173E+03  0.00000000000E+00 0. -1.
          6    1    1    2  501    0  0.58686929133E+02 -0.73795701936E+02  0.77259776134E+02  0.21163183665E+03  0.17300000000E+03 0.  1.
         -6    1    1    2    0  503 -0.58686929133E+02  0.73795701936E+02 -0.50787038873E+02  0.20346568407E+03  0.17300000000E+03 0.  1.
<mgrwt>
<rscale>  2 0.19702528E+03</rscale>
<asrwt>0</asrwt>
<pdfrwt beam="1">  1       21 0.33966943E-01 0.19702528E+03</pdfrwt>
<pdfrwt beam="2">  1       21 0.29894214E-01 0.19702528E+03</pdfrwt>
<totfact> 0.89440102E+04</totfact>
</mgrwt>
</event>
<event>
 4    1  0.4441180E+000  0.1973859E+03  0.7546771E-02  0.1151963E+00
         21   -1    0    0  503  502  0.00000000000E+00  0.00000000000E+00  0.76165175222E+02  0.76165175222E+02  0.00000000000E+00 0. -1.
         21   -1    0    0  501  503 -0.00000000000E+00 -0.00000000000E+00 -0.51161224733E+03  0.51161224733E+03  0.00000000000E+00 0. -1.
          6    1    1    2  501    0 -0.59644438577E+02 -0.73991578714E+02 -0.21413073363E+03  0.29122703147E+03  0.17300000000E+03 0. -1.
         -6    1    1    2    0  502  0.59644438577E+02  0.73991578714E+02 -0.22131633848E+03  0.29655039109E+03  0.17300000000E+03 0. -1.
<mgrwt>
<rscale>  2 0.19738595E+03</rscale>
<asrwt>0</asrwt>
<pdfrwt beam="1">  1       21 0.11717719E-01 0.19738595E+03</pdfrwt>
<pdfrwt beam="2">  1       21 0.78709578E-01 0.19738595E+03</pdfrwt>
<totfact> 0.87187038E+04</totfact>
</mgrwt>
</event>
<event>
 4    1  0.4441180E+000  0.2439239E+03  0.7546771E-02  0.1117206E+00
         21   -1    0    0  501  502  0.00000000000E+00  0.00000000000E+00  0.33024714621E+03  0.33024714621E+03  0.00000000000E+00 0.  1.
         21   -1    0    0  502  503 -0.00000000000E+00 -0.00000000000E+00 -0.21216365670E+03  0.21216365670E+03  0.00000000000E+00 0. -1.
          6    1    1    2  501    0  0.33225557445E+02  0.16871850995E+03  0.16436659396E+03  0.29413474884E+03  0.17300000000E+03 0.  1.
         -6    1    1    2    0  503 -0.33225557445E+02 -0.16871850995E+03 -0.46283104444E+02  0.24827605407E+03  0.17300000000E+03 0. -1.
<mgrwt>
<rscale>  2 0.24392391E+03</rscale>
<asrwt>0</asrwt>
<pdfrwt beam="1">  1       21 0.50807253E-01 0.24392391E+03</pdfrwt>
<pdfrwt beam="2">  1       21 0.32640563E-01 0.24392391E+03</pdfrwt>
<totfact> 0.32449042E+04</totfact>
</mgrwt>
</event>
<event>
 4    1  0.4441180E+000  0.2420908E+03  0.7546771E-02  0.1118408E+00
         21   -1    0    0  503  502  0.00000000000E+00  0.00000000000E+00  0.78782337772E+03  0.78782337772E+03  0.00000000000E+00 0. -1.
         21   -1    0    0  501  503 -0.00000000000E+00 -0.00000000000E+00 -0.25462147961E+03  0.25462147961E+03  0.00000000000E+00 0.  1.
          6    1    1    2  501    0  0.16328994648E+03  0.44892697800E+02 -0.17191781239E+03  0.29692371942E+03  0.17300000000E+03 0.  1.
         -6    1    1    2    0  502 -0.16328994648E+03 -0.44892697800E+02  0.70511971050E+03  0.74552113791E+03  0.17300000000E+03 0. -1.
<mgrwt>
<rscale>  2 0.24209081E+03</rscale>
<asrwt>0</asrwt>
<pdfrwt beam="1">  1       21 0.12120360E+00 0.24209081E+03</pdfrwt>
<pdfrwt beam="2">  1       21 0.39172536E-01 0.24209081E+03</pdfrwt>
<totfact> 0.31121609E+03</totfact>
</mgrwt>
</event>
<event>
 4    1  0.4441180E+000  0.1974209E+03  0.7546771E-02  0.1151933E+00
         21   -1    0    0  503  502  0.00000000000E+00  0.00000000000E+00  0.51989037160E+02  0.51989037160E+02  0.00000000000E+00 0.  1.
         21   -1    0    0  501  503 -0.00000000000E+00 -0.00000000000E+00 -0.12298612499E+04  0.12298612499E+04  0.00000000000E+00 0.  1.
          6    1    1    2  501    0  0.12069217168E+02 -0.94341564107E+02 -0.98941820433E+03  0.10089218898E+04  0.17300000000E+03 0.  1.
         -6    1    1    2    0  502 -0.12069217168E+02  0.94341564107E+02 -0.18845400837E+03  0.27292839719E+03  0.17300000000E+03 0.  1.
<mgrwt>
<rscale>  2 0.19742086E+03</rscale>
<asrwt>0</asrwt>
<pdfrwt beam="1">  1       21 0.79983134E-02 0.19742086E+03</pdfrwt>
<pdfrwt beam="2">  1       21 0.18920942E+00 0.19742086E+03</pdfrwt>
<totfact> 0.18882373E+04</totfact>
</mgrwt>
</event>
<event>
 4    1  0.4441180E+000  0.1769387E+03  0.7546771E-02  0.1170799E+00
         21   -1    0    0  501  502  0.00000000000E+00  0.00000000000E+00  0.25569347106E+03  0.25569347106E+03  0.00000000000E+00 0. -1.
         21   -1    0    0  502  503 -0.00000000000E+00 -0.00000000000E+00 -0.23434480327E+03  0.23434480327E+03  0.00000000000E+00 0. -1.
          6    1    1    2  501    0  0.18305704404E+02 -0.32298904421E+02  0.17998920998E+03  0.25239539170E+03  0.17300000000E+03 0. -1.
         -6    1    1    2    0  503 -0.18305704404E+02  0.32298904421E+02 -0.15864054219E+03  0.23764288263E+03  0.17300000000E+03 0. -1.
<mgrwt>
<rscale>  2 0.17693874E+03</rscale>
<asrwt>0</asrwt>
<pdfrwt beam="1">  1       21 0.39337457E-01 0.17693874E+03</pdfrwt>
<pdfrwt beam="2">  1       21 0.36053047E-01 0.17693874E+03</pdfrwt>
<totfact> 0.46571744E+04</totfact>
</mgrwt>
</event>
<event>
 4    1  0.4441180E+000  0.1751447E+03  0.7546771E-02  0.1172586E+00
         21   -1    0    0  501  502  0.00000000000E+00  0.00000000000E+00  0.24895154285E+03  0.24895154285E+03  0.00000000000E+00 0.  1.
         21   -1    0    0  502  503 -0.00000000000E+00 -0.00000000000E+00 -0.15495886328E+03  0.15495886328E+03  0.00000000000E+00 0.  1.
          6    1    1    2  501    0 -0.25109083577E+02  0.10779654871E+02  0.13839638789E+03  0.22322461159E+03  0.17300000000E+03 0. -1.
         -6    1    1    2    0  503  0.25109083577E+02 -0.10779654871E+02 -0.44403708323E+02  0.18068579454E+03  0.17300000000E+03 0. -1.
<mgrwt>
<rscale>  2 0.17514470E+03</rscale>
<asrwt>0</asrwt>
<pdfrwt beam="1">  1       21 0.38300237E-01 0.17514470E+03</pdfrwt>
<pdfrwt beam="2">  1       21 0.23839825E-01 0.17514470E+03</pdfrwt>
<totfact> 0.10970841E+05</totfact>
</mgrwt>
</event>
<event>
 4    1  0.4441180E+000  0.2451314E+03  0.7546771E-02  0.1116421E+00
         21   -1    0    0  501  502  0.00000000000E+00  0.00000000000E+00  0.55715743882E+03  0.55715743882E+03  0.00000000000E+00 0. -1.
         21   -1    0    0  502  503 -0.00000000000E+00 -0.00000000000E+00 -0.28064218700E+03  0.28064218700E+03  0.00000000000E+00 0.  1.
          6    1    1    2  501    0  0.17270855256E+03  0.18225694482E+02  0.46695464155E+03  0.52738606100E+03  0.17300000000E+03 0. -1.
         -6    1    1    2    0  503 -0.17270855256E+03 -0.18225694482E+02 -0.19043938973E+03  0.31041356483E+03  0.17300000000E+03 0.  1.
<mgrwt>
<rscale>  2 0.24513143E+03</rscale>
<asrwt>0</asrwt>
<pdfrwt beam="1">  1       21 0.85716529E-01 0.24513143E+03</pdfrwt>
<pdfrwt beam="2">  1       21 0.43175721E-01 0.24513143E+03</pdfrwt>
<totfact> 0.58449469E+03</totfact>
</mgrwt>
</event>
<event>
 4    1  0.4441180E+000  0.2089062E+03  0.7546771E-02  0.1142435E+00
         21   -1    0    0  503  502  0.00000000000E+00  0.00000000000E+00  0.12569638902E+03  0.12569638902E+03  0.00000000000E+00 0. -1.
         21   -1    0    0  501  503 -0.00000000000E+00 -0.00000000000E+00 -0.12532803832E+04  0.12532803832E+04  0.00000000000E+00 0.  1.
          6    1    1    2  501    0  0.11599260661E+03 -0.16078327452E+02 -0.11500464804E+04  0.11688664186E+04  0.17300000000E+03 0.  1.
         -6    1    1    2    0  502 -0.11599260661E+03  0.16078327452E+02  0.22462486254E+02  0.21011035360E+03  0.17300000000E+03 0. -1.
<mgrwt>
<rscale>  2 0.20890619E+03</rscale>
<asrwt>0</asrwt>
<pdfrwt beam="1">  1       21 0.19337906E-01 0.20890619E+03</pdfrwt>
<pdfrwt beam="2">  1       21 0.19281236E+00 0.20890619E+03</pdfrwt>
<totfact> 0.36187400E+03</totfact>
</mgrwt>
</event>
<event>
 4    1  0.4441180E+000  0.3603924E+03  0.7546771E-02  0.1058429E+00
         21   -1    0    0  501  502  0.00000000000E+00  0.00000000000E+00  0.64537726805E+03  0.64537726805E+03  0.00000000000E+00 0. -1.
         21   -1    0    0  502  503 -0.00000000000E+00 -0.00000000000E+00 -0.20153593007E+03  0.20153593007E+03  0.00000000000E+00 0. -1.
          6    1    1    2  501    0  0.18048320065E+03 -0.25957563539E+03  0.23784820595E+03  0.43180373467E+03  0.17300000000E+03 0. -1.
         -6    1    1    2    0  503 -0.18048320065E+03  0.25957563539E+03  0.20599313204E+03  0.41510946345E+03  0.17300000000E+03 0. -1.
<mgrwt>
<rscale>  2 0.36039242E+03</rscale>
<asrwt>0</asrwt>
<pdfrwt beam="1">  1       21 0.99288809E-01 0.36039242E+03</pdfrwt>
<pdfrwt beam="2">  1       21 0.31005528E-01 0.36039242E+03</pdfrwt>
<totfact> 0.76192689E+03</totfact>
</mgrwt>
</event>
<event>
 4    1  0.4441180E+000  0.1777718E+03  0.7546771E-02  0.1169977E+00
         21   -1    0    0  503  502  0.00000000000E+00  0.00000000000E+00  0.16556852063E+03  0.16556852063E+03  0.00000000000E+00 0. -1.
         21   -1    0    0  501  503 -0.00000000000E+00 -0.00000000000E+00 -0.26599806158E+03  0.26599806158E+03  0.00000000000E+00 0. -1.
          6    1    1    2  501    0 -0.29751256157E+02 -0.28083127088E+02 -0.16488926229E+03  0.24246910749E+03  0.17300000000E+03 0. -1.
         -6    1    1    2    0  502  0.29751256157E+02  0.28083127088E+02  0.64459721336E+02  0.18909747472E+03  0.17300000000E+03 0. -1.
<mgrwt>
<rscale>  2 0.17777176E+03</rscale>
<asrwt>0</asrwt>
<pdfrwt beam="1">  1       21 0.25472080E-01 0.17777176E+03</pdfrwt>
<pdfrwt beam="2">  1       21 0.40922778E-01 0.17777176E+03</pdfrwt>
<totfact> 0.84564282E+04</totfact>
</mgrwt>
</event>
<event>
 4    1  0.4441180E+000  0.1797872E+03  0.7546771E-02  0.1168009E+00
         21   -1    0    0  503  502  0.00000000000E+00  0.00000000000E+00  0.48052482197E+02  0.48052482197E+02  0.00000000000E+00 0.  1.
         21   -1    0    0  501  503 -0.00000000000E+00 -0.00000000000E+00 -0.91975719506E+03  0.91975719506E+03  0.00000000000E+00 0. -1.
          6    1    1    2  501    0  0.53162898709E+01  0.48643245725E+02 -0.18503988604E+03  0.25799842581E+03  0.17300000000E+03 0.  1.
         -6    1    1    2    0  502 -0.53162898709E+01 -0.48643245725E+02 -0.68666482682E+03  0.70981125145E+03  0.17300000000E+03 0. -1.
<mgrwt>
<rscale>  2 0.17978717E+03</rscale>
<asrwt>0</asrwt>
<pdfrwt beam="1">  1       21 0.73926898E-02 0.17978717E+03</pdfrwt>
<pdfrwt beam="2">  1       21 0.14150110E+00 0.17978717E+03</pdfrwt>
<totfact> 0.48252112E+04</totfact>
</mgrwt>
</event>
<event>
 4    1  0.4441180E+000  0.2031904E+03  0.7546771E-02  0.1147075E+00
         21   -1    0    0  503  502  0.00000000000E+00  0.00000000000E+00  0.60148581266E+02  0.60148581266E+02  0.00000000000E+00 0. -1.
         21   -1    0    0  501  503 -0.00000000000E+00 -0.00000000000E+00 -0.12103376205E+04  0.12103376205E+04  0.00000000000E+00 0.  1.
          6    1    1    2  501    0  0.45545910184E+02  0.96347951797E+02 -0.99304412762E+03  0.10136187632E+04  0.17300000000E+03 0.  1.
         -6    1    1    2    0  502 -0.45545910184E+02 -0.96347951797E+02 -0.15714491167E+03  0.25686743860E+03  0.17300000000E+03 0. -1.
<mgrwt>
<rscale>  2 0.20319045E+03</rscale>
<asrwt>0</asrwt>
<pdfrwt beam="1">  1       21 0.92536282E-02 0.20319045E+03</pdfrwt>
<pdfrwt beam="2">  1       21 0.18620578E+00 0.20319045E+03</pdfrwt>
<totfact> 0.15251677E+04</totfact>
</mgrwt>
</event>
<event>
 4    1  0.4441180E+000  0.2591138E+03  0.7546771E-02  0.1107677E+00
         21   -1    0    0  501  502  0.00000000000E+00  0.00000000000E+00  0.82211320485E+03  0.82211320485E+03  0.00000000000E+00 0. -1.
         21   -1    0    0  502  503 -0.00000000000E+00 -0.00000000000E+00 -0.19972583927E+03  0.19972583927E+03  0.00000000000E+00 0.  1.
          6    1    1    2  501    0 -0.16545761495E+03  0.99170184094E+02  0.70400470482E+03  0.75017502769E+03  0.17300000000E+03 0. -1.
         -6    1    1    2    0  503  0.16545761495E+03 -0.99170184094E+02 -0.81617339245E+02  0.27166401643E+03  0.17300000000E+03 0.  1.
<mgrwt>
<rscale>  2 0.25911377E+03</rscale>
<asrwt>0</asrwt>
<pdfrwt beam="1">  1       21 0.12647895E+00 0.25911377E+03</pdfrwt>
<pdfrwt beam="2">  1       21 0.30727053E-01 0.25911377E+03</pdfrwt>
<totfact> 0.44873494E+03</totfact>
</mgrwt>
</event>
<event>
 4    1  0.4441180E+000  0.2405340E+03  0.7546771E-02  0.1119438E+00
         21   -1    0    0  501  502  0.00000000000E+00  0.00000000000E+00  0.88079782733E+02  0.88079782733E+02  0.00000000000E+00 0. -1.
         21   -1    0    0  502  503 -0.00000000000E+00 -0.00000000000E+00 -0.69096161464E+03  0.69096161464E+03  0.00000000000E+00 0. -1.
          6    1    1    2  501    0 -0.35319918757E+02  0.16334048122E+03 -0.21491360437E+03  0.32255924543E+03  0.17300000000E+03 0. -1.
         -6    1    1    2    0  503  0.35319918757E+02 -0.16334048122E+03 -0.38796822753E+03  0.45648215194E+03  0.17300000000E+03 0. -1.
<mgrwt>
<rscale>  2 0.24053401E+03</rscale>
<asrwt>0</asrwt>
<pdfrwt beam="1">  1       21 0.13550736E-01 0.24053401E+03</pdfrwt>
<pdfrwt beam="2">  1       21 0.10630179E+00 0.24053401E+03</pdfrwt>
<totfact> 0.32619432E+04</totfact>
</mgrwt>
</event>
<event>
 4    1  0.4441180E+000  0.1952158E+03  0.7546771E-02  0.1153839E+00
         21   -1    0    0  503  502  0.00000000000E+00  0.00000000000E+00  0.25060694266E+03  0.25060694266E+03  0.00000000000E+00 0.  1.
         21   -1    0    0  501  503 -0.00000000000E+00 -0.00000000000E+00 -0.15777547928E+03  0.15777547928E+03  0.00000000000E+00 0.  1.
          6    1    1    2  501    0  0.34426829253E+02 -0.83636053563E+02  0.75779224938E+01  0.19536279312E+03  0.17300000000E+03 0.  1.
         -6    1    1    2    0  502 -0.34426829253E+02  0.83636053563E+02  0.85253540889E+02  0.21301962882E+03  0.17300000000E+03 0.  1.
<mgrwt>
<rscale>  2 0.19521577E+03</rscale>
<asrwt>0</asrwt>
<pdfrwt beam="1">  1       21 0.38554914E-01 0.19521577E+03</pdfrwt>
<pdfrwt beam="2">  1       21 0.24273151E-01 0.19521577E+03</pdfrwt>
<totfact> 0.10384123E+05</totfact>
</mgrwt>
</event>
<event>
 4    1  0.4441180E+000  0.1991740E+03  0.7546771E-02  0.1150438E+00
         21   -1    0    0  503  502  0.00000000000E+00  0.00000000000E+00  0.29268218522E+03  0.29268218522E+03  0.00000000000E+00 0. -1.
         21   -1    0    0  501  503 -0.00000000000E+00 -0.00000000000E+00 -0.13729209633E+03  0.13729209633E+03  0.00000000000E+00 0. -1.
          6    1    1    2  501    0  0.61239754940E+02  0.77401469452E+02  0.53411925316E+02  0.20621136929E+03  0.17300000000E+03 0. -1.
         -6    1    1    2    0  502 -0.61239754940E+02 -0.77401469452E+02  0.10197816357E+03  0.22376291226E+03  0.17300000000E+03 0. -1.
<mgrwt>
<rscale>  2 0.19917403E+03</rscale>
<asrwt>0</asrwt>
<pdfrwt beam="1">  1       21 0.45028028E-01 0.19917403E+03</pdfrwt>
<pdfrwt beam="2">  1       21 0.21121861E-01 0.19917403E+03</pdfrwt>
<totfact> 0.98369150E+04</totfact>
</mgrwt>
</event>
<event>
 4    1  0.4441180E+000  0.2406350E+03  0.7546771E-02  0.1119371E+00
         21   -1    0    0  503  502  0.00000000000E+00  0.00000000000E+00  0.28116400225E+03  0.28116400225E+03  0.00000000000E+00 0. -1.
         21   -1    0    0  501  503 -0.00000000000E+00 -0.00000000000E+00 -0.32121361625E+03  0.32121361625E+03  0.00000000000E+00 0. -1.
          6    1    1    2  501    0  0.16572934915E+03  0.22583086422E+02 -0.20044760678E+03  0.31318438024E+03  0.17300000000E+03 0. -1.
         -6    1    1    2    0  502 -0.16572934915E+03 -0.22583086422E+02  0.16039799278E+03  0.28919323826E+03  0.17300000000E+03 0. -1.
<mgrwt>
<rscale>  2 0.24063502E+03</rscale>
<asrwt>0</asrwt>
<pdfrwt beam="1">  1       21 0.43256000E-01 0.24063502E+03</pdfrwt>
<pdfrwt beam="2">  1       21 0.49417479E-01 0.24063502E+03</pdfrwt>
<totfact> 0.19531515E+04</totfact>
</mgrwt>
</event>
<event>
 4    1  0.4441180E+000  0.1804222E+03  0.7546771E-02  0.1167395E+00
         21   -1    0    0  503  502  0.00000000000E+00  0.00000000000E+00  0.31036342305E+03  0.31036342305E+03  0.00000000000E+00 0. -1.
         21   -1    0    0  501  503 -0.00000000000E+00 -0.00000000000E+00 -0.15542403047E+03  0.15542403047E+03  0.00000000000E+00 0. -1.
          6    1    1    2  501    0  0.41550353070E+02  0.29945884735E+02 -0.55335795158E+02  0.18871734970E+03  0.17300000000E+03 0. -1.
         -6    1    1    2    0  502 -0.41550353070E+02 -0.29945884735E+02  0.21027518773E+03  0.27707010382E+03  0.17300000000E+03 0. -1.
<mgrwt>
<rscale>  2 0.18042225E+03</rscale>
<asrwt>0</asrwt>
<pdfrwt beam="1">  1       21 0.47748219E-01 0.18042225E+03</pdfrwt>
<pdfrwt beam="2">  1       21 0.23911389E-01 0.18042225E+03</pdfrwt>
<totfact> 0.69498389E+04</totfact>
</mgrwt>
</event>
<event>
 4    1  0.4441180E+000  0.1967316E+03  0.7546771E-02  0.1152526E+00
         21   -1    0    0  501  502  0.00000000000E+00  0.00000000000E+00  0.65059629557E+03  0.65059629557E+03  0.00000000000E+00 0. -1.
         21   -1    0    0  502  503 -0.00000000000E+00 -0.00000000000E+00 -0.73142210260E+02  0.73142210260E+02  0.00000000000E+00 0.  1.
          6    1    1    2  501    0 -0.78469253471E+01 -0.93342048256E+02  0.44507251088E+03  0.48661365800E+03  0.17300000000E+03 0. -1.
         -6    1    1    2    0  503  0.78469253471E+01  0.93342048256E+02  0.13238157443E+03  0.23712484783E+03  0.17300000000E+03 0.  1.
<mgrwt>
<rscale>  2 0.19673157E+03</rscale>
<asrwt>0</asrwt>
<pdfrwt beam="1">  1       21 0.10009173E+00 0.19673157E+03</pdfrwt>
<pdfrwt beam="2">  1       21 0.11252648E-01 0.19673157E+03</pdfrwt>
<totfact> 0.53807932E+04</totfact>
</mgrwt>
</event>
<event>
 4    1  0.4441180E+000  0.2053707E+03  0.7546771E-02  0.1145285E+00
         21   -1    0    0  503  502  0.00000000000E+00  0.00000000000E+00  0.44170537044E+02  0.44170537044E+02  0.00000000000E+00 0. -1.
         21   -1    0    0  501  503 -0.00000000000E+00 -0.00000000000E+00 -0.11529477689E+04  0.11529477689E+04  0.00000000000E+00 0. -1.
          6    1    1    2  501    0  0.11041859854E+03  0.74733850708E+01 -0.30629237445E+03  0.36877111741E+03  0.17300000000E+03 0. -1.
         -6    1    1    2    0  502 -0.11041859854E+03 -0.74733850708E+01 -0.80248485738E+03  0.82834718851E+03  0.17300000000E+03 0. -1.
<mgrwt>
<rscale>  2 0.20537069E+03</rscale>
<asrwt>0</asrwt>
<pdfrwt beam="1">  1       21 0.67954676E-02 0.20537069E+03</pdfrwt>
<pdfrwt beam="2">  1       21 0.17737657E+00 0.20537069E+03</pdfrwt>
<totfact> 0.29935790E+04</totfact>
</mgrwt>
</event>
<event>
 4    1  0.4441180E+000  0.1896353E+03  0.7546771E-02  0.1158791E+00
         21   -1    0    0  503  502  0.00000000000E+00  0.00000000000E+00  0.48424398999E+03  0.48424398999E+03  0.00000000000E+00 0.  1.
         21   -1    0    0  501  503 -0.00000000000E+00 -0.00000000000E+00 -0.88603365125E+02  0.88603365125E+02  0.00000000000E+00 0.  1.
          6    1    1    2  501    0  0.74315256068E+02  0.22578624678E+02  0.82591912731E+02  0.20684045935E+03  0.17300000000E+03 0.  1.
         -6    1    1    2    0  502 -0.74315256068E+02 -0.22578624678E+02  0.31304871214E+03  0.36600689576E+03  0.17300000000E+03 0.  1.
<mgrwt>
<rscale>  2 0.18963531E+03</rscale>
<asrwt>0</asrwt>
<pdfrwt beam="1">  1       21 0.74499074E-01 0.18963531E+03</pdfrwt>
<pdfrwt beam="2">  1       21 0.13631287E-01 0.18963531E+03</pdfrwt>
<totfact> 0.75407641E+04</totfact>
</mgrwt>
</event>
<event>
 4    1  0.4441180E+000  0.3153622E+03  0.7546771E-02  0.1077804E+00
         21   -1    0    0  503  502  0.00000000000E+00  0.00000000000E+00  0.85180886400E+03  0.85180886400E+03  0.00000000000E+00 0.  1.
         21   -1    0    0  501  503 -0.00000000000E+00 -0.00000000000E+00 -0.17310950582E+03  0.17310950582E+03  0.00000000000E+00 0.  1.
          6    1    1    2  501    0 -0.25536863067E+03 -0.65659496426E+02  0.46960360203E+02  0.31883943048E+03  0.17300000000E+03 0.  1.
         -6    1    1    2    0  502  0.25536863067E+03  0.65659496426E+02  0.63173899797E+03  0.70607893933E+03  0.17300000000E+03 0.  1.
<mgrwt>
<rscale>  2 0.31536218E+03</rscale>
<asrwt>0</asrwt>
<pdfrwt beam="1">  1       21 0.13104752E+00 0.31536218E+03</pdfrwt>
<pdfrwt beam="2">  1       21 0.26632232E-01 0.31536218E+03</pdfrwt>
<totfact> 0.52540316E+03</totfact>
</mgrwt>
</event>
<event>
 4    1  0.4441180E+000  0.2782287E+03  0.7546771E-02  0.1096660E+00
         21   -1    0    0  503  502  0.00000000000E+00  0.00000000000E+00  0.96834915789E+02  0.96834915789E+02  0.00000000000E+00 0.  1.
         21   -1    0    0  501  503 -0.00000000000E+00 -0.00000000000E+00 -0.17378469615E+04  0.17378469615E+04  0.00000000000E+00 0. -1.
          6    1    1    2  501    0 -0.20261973389E+03 -0.80171351945E+02 -0.14946095542E+04  0.15202858026E+04  0.17300000000E+03 0. -1.
         -6    1    1    2    0  502  0.20261973389E+03  0.80171351945E+02 -0.14640249153E+03  0.31439607465E+03  0.17300000000E+03 0.  1.
<mgrwt>
<rscale>  2 0.27822869E+03</rscale>
<asrwt>0</asrwt>
<pdfrwt beam="1">  1       21 0.14897680E-01 0.27822869E+03</pdfrwt>
<pdfrwt beam="2">  1       21 0.26736107E+00 0.27822869E+03</pdfrwt>
<totfact> 0.19208864E+03</totfact>
</mgrwt>
</event>
<event>
 4    1  0.4441180E+000  0.2065853E+03  0.7546771E-02  0.1144299E+00
         21   -1    0    0  503  502  0.00000000000E+00  0.00000000000E+00  0.15141995701E+03  0.15141995701E+03  0.00000000000E+00 0.  1.
         21   -1    0    0  501  503 -0.00000000000E+00 -0.00000000000E+00 -0.52451146550E+03  0.52451146550E+03  0.00000000000E+00 0. -1.
          6    1    1    2  501    0  0.28737049819E+02  0.10919100940E+03 -0.41642346188E+03  0.46485050734E+03  0.17300000000E+03 0. -1.
         -6    1    1    2    0  502 -0.28737049819E+02 -0.10919100940E+03  0.43331953397E+02  0.21108091517E+03  0.17300000000E+03 0.  1.
<mgrwt>
<rscale>  2 0.20658532E+03</rscale>
<asrwt>0</asrwt>
<pdfrwt beam="1">  1       21 0.23295378E-01 0.20658532E+03</pdfrwt>
<pdfrwt beam="2">  1       21 0.80694071E-01 0.20658532E+03</pdfrwt>
<totfact> 0.23175405E+04</totfact>
</mgrwt>
</event>
<event>
 4    1  0.4441180E+000  0.3408550E+03  0.7546771E-02  0.1066432E+00
         21   -1    0    0  501  502  0.00000000000E+00  0.00000000000E+00  0.34607752116E+03  0.34607752116E+03  0.00000000000E+00 0. -1.
         21   -1    0    0  502  503 -0.00000000000E+00 -0.00000000000E+00 -0.34985747505E+03  0.34985747505E+03  0.00000000000E+00 0. -1.
          6    1    1    2  501    0  0.28996053309E+03  0.46647476639E+02  0.68080404881E+02  0.34758745569E+03  0.17300000000E+03 0. -1.
         -6    1    1    2    0  503 -0.28996053309E+03 -0.46647476639E+02 -0.71860358768E+02  0.34834754052E+03  0.17300000000E+03 0. -1.
<mgrwt>
<rscale>  2 0.34085495E+03</rscale>
<asrwt>0</asrwt>
<pdfrwt beam="1">  1       21 0.53242696E-01 0.34085495E+03</pdfrwt>
<pdfrwt beam="2">  1       21 0.53824226E-01 0.34085495E+03</pdfrwt>
<totfact> 0.10095263E+04</totfact>
</mgrwt>
</event>
<event>
 4    1  0.4441180E+000  0.2452124E+03  0.7546771E-02  0.1116368E+00
         21   -1    0    0  503  502  0.00000000000E+00  0.00000000000E+00  0.48066042940E+03  0.48066042940E+03  0.00000000000E+00 0.  1.
         21   -1    0    0  501  503 -0.00000000000E+00 -0.00000000000E+00 -0.17980187081E+03  0.17980187081E+03  0.00000000000E+00 0.  1.
          6    1    1    2  501    0 -0.43809647894E+02 -0.16816906295E+03 -0.31722919282E+02  0.24725586462E+03  0.17300000000E+03 0.  1.
         -6    1    1    2    0  502  0.43809647894E+02  0.16816906295E+03  0.33258147787E+03  0.41320643558E+03  0.17300000000E+03 0.  1.
<mgrwt>
<rscale>  2 0.24521240E+03</rscale>
<asrwt>0</asrwt>
<pdfrwt beam="1">  1       21 0.73947758E-01 0.24521240E+03</pdfrwt>
<pdfrwt beam="2">  1       21 0.27661826E-01 0.24521240E+03</pdfrwt>
<totfact> 0.19875702E+04</totfact>
</mgrwt>
</event>
<event>
 4    1  0.4441180E+000  0.1735391E+03  0.7546771E-02  0.1174207E+00
         21   -1    0    0  503  502  0.00000000000E+00  0.00000000000E+00  0.76239843538E+03  0.76239843538E+03  0.00000000000E+00 0. -1.
         21   -1    0    0  501  503 -0.00000000000E+00 -0.00000000000E+00 -0.41487410841E+02  0.41487410841E+02  0.00000000000E+00 0. -1.
          6    1    1    2  501    0  0.13649900191E+02  0.71884278385E+00  0.27251427157E+03  0.32307872836E+03  0.17300000000E+03 0.  1.
         -6    1    1    2    0  502 -0.13649900191E+02 -0.71884278385E+00  0.44839675297E+03  0.48080711786E+03  0.17300000000E+03 0.  1.
<mgrwt>
<rscale>  2 0.17353915E+03</rscale>
<asrwt>0</asrwt>
<pdfrwt beam="1">  1       21 0.11729206E+00 0.17353915E+03</pdfrwt>
<pdfrwt beam="2">  1       21 0.63826792E-02 0.17353915E+03</pdfrwt>
<totfact> 0.99903341E+04</totfact>
</mgrwt>
</event>
<event>
 4    1  0.4441180E+000  0.1850703E+03  0.7546771E-02  0.1162984E+00
         21   -1    0    0  501  502  0.00000000000E+00  0.00000000000E+00  0.25724739851E+03  0.25724739851E+03  0.00000000000E+00 0.  1.
         21   -1    0    0  502  503 -0.00000000000E+00 -0.00000000000E+00 -0.14387639894E+03  0.14387639894E+03  0.00000000000E+00 0. -1.
          6    1    1    2  501    0 -0.65567195933E+02 -0.47929623502E+01  0.11146216685E+03  0.21604361668E+03  0.17300000000E+03 0. -1.
         -6    1    1    2    0  503  0.65567195933E+02  0.47929623502E+01  0.19088327173E+01  0.18508018077E+03  0.17300000000E+03 0.  1.
<mgrwt>
<rscale>  2 0.18507034E+03</rscale>
<asrwt>0</asrwt>
<pdfrwt beam="1">  1       21 0.39576523E-01 0.18507034E+03</pdfrwt>
<pdfrwt beam="2">  1       21 0.22134831E-01 0.18507034E+03</pdfrwt>
<totfact> 0.11775262E+05</totfact>
</mgrwt>
</event>
<event>
 4    1  0.4441180E+000  0.1996322E+03  0.7546771E-02  0.1150050E+00
         21   -1    0    0  503  502  0.00000000000E+00  0.00000000000E+00  0.27055507418E+03  0.27055507418E+03  0.00000000000E+00 0. -1.
         21   -1    0    0  501  503 -0.00000000000E+00 -0.00000000000E+00 -0.17742965127E+03  0.17742965127E+03  0.00000000000E+00 0. -1.
          6    1    1    2  501    0 -0.58204809873E+02 -0.80846756730E+02  0.13886466428E+03  0.24317975440E+03  0.17300000000E+03 0. -1.
         -6    1    1    2    0  502  0.58204809873E+02  0.80846756730E+02 -0.45739241364E+02  0.20480497105E+03  0.17300000000E+03 0. -1.
<mgrwt>
<rscale>  2 0.19963216E+03</rscale>
<asrwt>0</asrwt>
<pdfrwt beam="1">  1       21 0.41623857E-01 0.19963216E+03</pdfrwt>
<pdfrwt beam="2">  1       21 0.27296870E-01 0.19963216E+03</pdfrwt>
<totfact> 0.70890847E+04</totfact>
</mgrwt>
</event>
<event>
 4    1  0.4441180E+000  0.1803301E+03  0.7546771E-02  0.1167484E+00
         21   -1    0    0  503  502  0.00000000000E+00  0.00000000000E+00  0.13170829320E+04  0.13170829320E+04  0.00000000000E+00 0.  1.
         21   -1    0    0  501  503 -0.00000000000E+00 -0.00000000000E+00 -0.30896704510E+02  0.30896704510E+02  0.00000000000E+00 0.  1.
          6    1    1    2  501    0 -0.44101604538E+02 -0.25396695264E+02  0.34101213488E+03  0.38575668470E+03  0.17300000000E+03 0.  1.
         -6    1    1    2    0  502  0.44101604538E+02  0.25396695264E+02  0.94517409261E+03  0.96222295181E+03  0.17300000000E+03 0.  1.
<mgrwt>
<rscale>  2 0.18033010E+03</rscale>
<asrwt>0</asrwt>
<pdfrwt beam="1">  1       21 0.20262810E+00 0.18033010E+03</pdfrwt>
<pdfrwt beam="2">  1       21 0.47533402E-02 0.18033010E+03</pdfrwt>
<totfact> 0.38180287E+04</totfact>
</mgrwt>
</event>
<event>
 4    1  0.4441180E+000  0.1847736E+03  0.7546771E-02  0.1163262E+00
         21   -1    0    0  501  502  0.00000000000E+00  0.00000000000E+00  0.51171169029E+03  0.51171169029E+03  0.00000000000E+00 0.  1.
         21   -1    0    0  502  503 -0.00000000000E+00 -0.00000000000E+00 -0.97647468240E+02  0.97647468240E+02  0.00000000000E+00 0.  1.
          6    1    1    2  501    0  0.59192094101E+02  0.26618865937E+02  0.37850161974E+03  0.42119442562E+03  0.17300000000E+03 0.  1.
         -6    1    1    2    0  503 -0.59192094101E+02 -0.26618865937E+02  0.35562602309E+02  0.18816473291E+03  0.17300000000E+03 0.  1.
<mgrwt>
<rscale>  2 0.18477356E+03</rscale>
<asrwt>0</asrwt>
<pdfrwt beam="1">  1       21 0.78724873E-01 0.18477356E+03</pdfrwt>
<pdfrwt beam="2">  1       21 0.15022688E-01 0.18477356E+03</pdfrwt>
<totfact> 0.55996288E+04</totfact>
</mgrwt>
</event>
<event>
 4    1  0.4441180E+000  0.2030100E+03  0.7546771E-02  0.1147224E+00
         21   -1    0    0  501  502  0.00000000000E+00  0.00000000000E+00  0.39361087383E+03  0.39361087383E+03  0.00000000000E+00 0. -1.
         21   -1    0    0  502  503 -0.00000000000E+00 -0.00000000000E+00 -0.11681357630E+03  0.11681357630E+03  0.00000000000E+00 0. -1.
          6    1    1    2  501    0 -0.10474661692E+03  0.17669462004E+02  0.22056607146E+03  0.29977067155E+03  0.17300000000E+03 0. -1.
         -6    1    1    2    0  503  0.10474661692E+03 -0.17669462004E+02  0.56231226074E+02  0.21065377858E+03  0.17300000000E+03 0. -1.
<mgrwt>
<rscale>  2 0.20301001E+03</rscale>
<asrwt>0</asrwt>
<pdfrwt beam="1">  1       21 0.60555518E-01 0.20301001E+03</pdfrwt>
<pdfrwt beam="2">  1       21 0.17971320E-01 0.20301001E+03</pdfrwt>
<totfact> 0.71201678E+04</totfact>
</mgrwt>
</event>
<event>
 4    1  0.4441180E+000  0.1931724E+03  0.7546771E-02  0.1155631E+00
         21   -1    0    0  503  502  0.00000000000E+00  0.00000000000E+00  0.61591310172E+03  0.61591310172E+03  0.00000000000E+00 0. -1.
         21   -1    0    0  501  503 -0.00000000000E+00 -0.00000000000E+00 -0.61142702032E+02  0.61142702032E+02  0.00000000000E+00 0. -1.
          6    1    1    2  501    0 -0.27355786589E+02  0.81475341637E+02  0.24507625860E+03  0.31205439091E+03  0.17300000000E+03 0. -1.
         -6    1    1    2    0  502  0.27355786589E+02 -0.81475341637E+02  0.30969414109E+03  0.36500141285E+03  0.17300000000E+03 0. -1.
<mgrwt>
<rscale>  2 0.19317239E+03</rscale>
<asrwt>0</asrwt>
<pdfrwt beam="1">  1       21 0.94755858E-01 0.19317239E+03</pdfrwt>
<pdfrwt beam="2">  1       21 0.94065700E-02 0.19317239E+03</pdfrwt>
<totfact> 0.84221279E+04</totfact>
</mgrwt>
</event>
<event>
 4    1  0.4441180E+000  0.2693996E+03  0.7546771E-02  0.1101624E+00
         21   -1    0    0  501  502  0.00000000000E+00  0.00000000000E+00  0.17090410357E+04  0.17090410357E+04  0.00000000000E+00 0. -1.
         21   -1    0    0  502  503 -0.00000000000E+00 -0.00000000000E+00 -0.43720372298E+02  0.43720372298E+02  0.00000000000E+00 0. -1.
          6    1    1    2  501    0 -0.20633237817E+03  0.86078603906E+01  0.98110452191E+03  0.10174193965E+04  0.17300000000E+03 0. -1.
         -6    1    1    2    0  503  0.20633237817E+03 -0.86078603906E+01  0.68421614151E+03  0.73534201148E+03  0.17300000000E+03 0. -1.
<mgrwt>
<rscale>  2 0.26939960E+03</rscale>
<asrwt>0</asrwt>
<pdfrwt beam="1">  1       21 0.26292934E+00 0.26939960E+03</pdfrwt>
<pdfrwt beam="2">  1       21 0.67262125E-02 0.26939960E+03</pdfrwt>
<totfact> 0.84769300E+03</totfact>
</mgrwt>
</event>
<event>
 4    1  0.4441180E+000  0.1910815E+03  0.7546771E-02  0.1157490E+00
         21   -1    0    0  501  502  0.00000000000E+00  0.00000000000E+00  0.59232566122E+03  0.59232566122E+03  0.00000000000E+00 0.  1.
         21   -1    0    0  502  503 -0.00000000000E+00 -0.00000000000E+00 -0.66469863892E+02  0.66469863892E+02  0.00000000000E+00 0.  1.
          6    1    1    2  501    0  0.74142838992E+02  0.32953974241E+02  0.35170210083E+03  0.40025803267E+03  0.17300000000E+03 0.  1.
         -6    1    1    2    0  503 -0.74142838992E+02 -0.32953974241E+02  0.17415369650E+03  0.25853749244E+03  0.17300000000E+03 0.  1.
<mgrwt>
<rscale>  2 0.19108146E+03</rscale>
<asrwt>0</asrwt>
<pdfrwt beam="1">  1       21 0.91127021E-01 0.19108146E+03</pdfrwt>
<pdfrwt beam="2">  1       21 0.10226133E-01 0.19108146E+03</pdfrwt>
<totfact> 0.79672176E+04</totfact>
</mgrwt>
</event>
<event>
 4    1  0.4441180E+000  0.2221981E+03  0.7546771E-02  0.1132255E+00
         21   -1    0    0  501  502  0.00000000000E+00  0.00000000000E+00  0.20539657580E+03  0.20539657580E+03  0.00000000000E+00 0.  1.
         21   -1    0    0  502  503 -0.00000000000E+00 -0.00000000000E+00 -0.25495620046E+03  0.25495620046E+03  0.00000000000E+00 0. -1.
          6    1    1    2  501    0  0.92999805322E+02  0.10389428420E+03  0.30268026091E+02  0.22425017164E+03  0.17300000000E+03 0.  1.
         -6    1    1    2    0  503 -0.92999805322E+02 -0.10389428420E+03 -0.79827650755E+02  0.23610260461E+03  0.17300000000E+03 0. -1.
<mgrwt>
<rscale>  2 0.22219808E+03</rscale>
<asrwt>0</asrwt>
<pdfrwt beam="1">  1       21 0.31599473E-01 0.22219808E+03</pdfrwt>
<pdfrwt beam="2">  1       21 0.39224031E-01 0.22219808E+03</pdfrwt>
<totfact> 0.59530625E+04</totfact>
</mgrwt>
</event>
<event>
 4    1  0.4441180E+000  0.3463375E+03  0.7546771E-02  0.1064128E+00
         21   -1    0    0  503  502  0.00000000000E+00  0.00000000000E+00  0.65508071589E+02  0.65508071589E+02  0.00000000000E+00 0.  1.
         21   -1    0    0  501  503 -0.00000000000E+00 -0.00000000000E+00 -0.18584749523E+04  0.18584749523E+04  0.00000000000E+00 0. -1.
          6    1    1    2  501    0 -0.16362076046E+03  0.25149340355E+03 -0.10133066417E+04  0.10708594845E+04  0.17300000000E+03 0.  1.
         -6    1    1    2    0  502  0.16362076046E+03 -0.25149340355E+03 -0.77966023904E+03  0.85312353948E+03  0.17300000000E+03 0. -1.
<mgrwt>
<rscale>  2 0.34633753E+03</rscale>
<asrwt>0</asrwt>
<pdfrwt beam="1">  1       21 0.10078164E-01 0.34633753E+03</pdfrwt>
<pdfrwt beam="2">  1       21 0.28591925E+00 0.34633753E+03</pdfrwt>
<totfact> 0.28816665E+03</totfact>
</mgrwt>
</event>
<event>
 4    1  0.4441180E+000  0.2131401E+03  0.7546771E-02  0.1139103E+00
         21   -1    0    0  501  502  0.00000000000E+00  0.00000000000E+00  0.10136429046E+03  0.10136429046E+03  0.00000000000E+00 0. -1.
         21   -1    0    0  502  503 -0.00000000000E+00 -0.00000000000E+00 -0.90171100475E+03  0.90171100475E+03  0.00000000000E+00 0.  1.
          6    1    1    2  501    0  0.11879916343E+03 -0.37235103871E+02 -0.44479058665E+02  0.21773167168E+03  0.17300000000E+03 0. -1.
         -6    1    1    2    0  503 -0.11879916343E+03  0.37235103871E+02 -0.75586765562E+03  0.78534362353E+03  0.17300000000E+03 0.  1.
<mgrwt>
<rscale>  2 0.21314008E+03</rscale>
<asrwt>0</asrwt>
<pdfrwt beam="1">  1       21 0.15594507E-01 0.21314008E+03</pdfrwt>
<pdfrwt beam="2">  1       21 0.13872477E+00 0.21314008E+03</pdfrwt>
<totfact> 0.13199732E+04</totfact>
</mgrwt>
</event>
<event>
 4    1  0.4441180E+000  0.2654999E+03  0.7546771E-02  0.1103883E+00
         21   -1    0    0  503  502  0.00000000000E+00  0.00000000000E+00  0.54498317711E+02  0.54498317711E+02  0.00000000000E+00 0. -1.
         21   -1    0    0  501  503 -0.00000000000E+00 -0.00000000000E+00 -0.13701227391E+04  0.13701227391E+04  0.00000000000E+00 0.  1.
          6    1    1    2  501    0  0.93991495679E+02 -0.17812011991E+03 -0.82632969443E+03  0.86793487214E+03  0.17300000000E+03 0.  1.
         -6    1    1    2    0  502 -0.93991495679E+02  0.17812011991E+03 -0.48929472698E+03  0.55668618469E+03  0.17300000000E+03 0. -1.
<mgrwt>
<rscale>  2 0.26549987E+03</rscale>
<asrwt>0</asrwt>
<pdfrwt beam="1">  1       21 0.83843571E-02 0.26549987E+03</pdfrwt>
<pdfrwt beam="2">  1       21 0.21078810E+00 0.26549987E+03</pdfrwt>
<totfact> 0.12027672E+04</totfact>
</mgrwt>
</event>
<event>
 4    1  0.4441180E+000  0.2043692E+03  0.7546771E-02  0.1146104E+00
         21   -1    0    0  501  502  0.00000000000E+00  0.00000000000E+00  0.52150850409E+03  0.52150850409E+03  0.00000000000E+00 0. -1.
         21   -1    0    0  502  503 -0.00000000000E+00 -0.00000000000E+00 -0.89381174204E+02  0.89381174204E+02  0.00000000000E+00 0.  1.
          6    1    1    2  501    0 -0.33468626909E+02  0.10352602734E+03  0.31455141208E+03  0.37511248735E+03  0.17300000000E+03 0.  1.
         -6    1    1    2    0  503  0.33468626909E+02 -0.10352602734E+03  0.11757591781E+03  0.23577719095E+03  0.17300000000E+03 0.  1.
<mgrwt>
<rscale>  2 0.20436924E+03</rscale>
<asrwt>0</asrwt>
<pdfrwt beam="1">  1       21 0.80232075E-01 0.20436924E+03</pdfrwt>
<pdfrwt beam="2">  1       21 0.13750950E-01 0.20436924E+03</pdfrwt>
<totfact> 0.62413679E+04</totfact>
</mgrwt>
</event>
<event>
 4    1  0.4441180E+000  0.1902410E+03  0.7546771E-02  0.1158244E+00
         21   -1    0    0  501  502  0.00000000000E+00  0.00000000000E+00  0.67556647185E+03  0.67556647185E+03  0.00000000000E+00 0. -1.
         21   -1    0    0  502  503 -0.00000000000E+00 -0.00000000000E+00 -0.62390674916E+02  0.62390674916E+02  0.00000000000E+00 0. -1.
          6    1    1    2  501    0 -0.60726891376E+02  0.50743206618E+02  0.44530703062E+03  0.48424165442E+03  0.17300000000E+03 0. -1.
         -6    1    1    2    0  503  0.60726891376E+02 -0.50743206618E+02  0.16786876632E+03  0.25371549235E+03  0.17300000000E+03 0. -1.
<mgrwt>
<rscale>  2 0.19024097E+03</rscale>
<asrwt>0</asrwt>
<pdfrwt beam="1">  1       21 0.10393330E+00 0.19024097E+03</pdfrwt>
<pdfrwt beam="2">  1       21 0.95985658E-02 0.19024097E+03</pdfrwt>
<totfact> 0.65384759E+04</totfact>
</mgrwt>
</event>
<event>
 4    1  0.4441180E+000  0.2012246E+03  0.7546771E-02  0.1148710E+00
         21   -1    0    0  501  502  0.00000000000E+00  0.00000000000E+00  0.64633571849E+02  0.64633571849E+02  0.00000000000E+00 0. -1.
         21   -1    0    0  502  503 -0.00000000000E+00 -0.00000000000E+00 -0.13906145761E+04  0.13906145761E+04  0.00000000000E+00 0. -1.
          6    1    1    2  501    0 -0.58576095184E+02 -0.84446341615E+02 -0.12361663548E+03  0.23616184304E+03  0.17300000000E+03 0. -1.
         -6    1    1    2    0  503  0.58576095184E+02  0.84446341615E+02 -0.12023643688E+04  0.12190863049E+04  0.17300000000E+03 0. -1.
<mgrwt>
<rscale>  2 0.20122461E+03</rscale>
<asrwt>0</asrwt>
<pdfrwt beam="1">  1       21 0.99436260E-02 0.20122461E+03</pdfrwt>
<pdfrwt beam="2">  1       21 0.21394071E+00 0.20122461E+03</pdfrwt>
<totfact> 0.89193880E+03</totfact>
</mgrwt>
</event>
<event>
 4    1  0.4441180E+000  0.4631871E+03  0.7546771E-02  0.1023861E+00
         21   -1    0    0  501  502  0.00000000000E+00  0.00000000000E+00  0.62733680498E+03  0.62733680498E+03  0.00000000000E+00 0.  1.
         21   -1    0    0  502  503 -0.00000000000E+00 -0.00000000000E+00 -0.55319814699E+03  0.55319814699E+03  0.00000000000E+00 0. -1.
          6    1    1    2  501    0  0.42669072286E+03 -0.50480519518E+02  0.40179380366E+03  0.61317250141E+03  0.17300000000E+03 0.  1.
         -6    1    1    2    0  503 -0.42669072286E+03  0.50480519518E+02 -0.32765514567E+03  0.56736245056E+03  0.17300000000E+03 0. -1.
<mgrwt>
<rscale>  2 0.46318706E+03</rscale>
<asrwt>0</asrwt>
<pdfrwt beam="1">  1       21 0.96513355E-01 0.46318706E+03</pdfrwt>
<pdfrwt beam="2">  1       21 0.85107407E-01 0.46318706E+03</pdfrwt>
<totfact> 0.89994642E+02</totfact>
</mgrwt>
</event>
<event>
 4    1  0.4441180E+000  0.1775954E+03  0.7546771E-02  0.1170151E+00
         21   -1    0    0  503  502  0.00000000000E+00  0.00000000000E+00  0.11465253591E+04  0.11465253591E+04  0.00000000000E+00 0.  1.
         21   -1    0    0  501  503 -0.00000000000E+00 -0.00000000000E+00 -0.51191567023E+02  0.51191567023E+02  0.00000000000E+00 0.  1.
          6    1    1    2  501    0  0.31856657277E+02  0.24419185765E+02  0.14034631856E+03  0.22635642774E+03  0.17300000000E+03 0.  1.
         -6    1    1    2    0  502 -0.31856657277E+02 -0.24419185765E+02  0.95498747353E+03  0.97136049840E+03  0.17300000000E+03 0.  1.
<mgrwt>
<rscale>  2 0.17759545E+03</rscale>
<asrwt>0</asrwt>
<pdfrwt beam="1">  1       21 0.17638850E+00 0.17759545E+03</pdfrwt>
<pdfrwt beam="2">  1       21 0.78756265E-02 0.17759545E+03</pdfrwt>
<totfact> 0.24007273E+04</totfact>
</mgrwt>
</event>
<event>
 4    1  0.4441180E+000  0.1929893E+03  0.7546771E-02  0.1155793E+00
         21   -1    0    0  501  502  0.00000000000E+00  0.00000000000E+00  0.12145374095E+03  0.12145374095E+03  0.00000000000E+00 0.  1.
         21   -1    0    0  502  503 -0.00000000000E+00 -0.00000000000E+00 -0.88637760229E+03  0.88637760229E+03  0.00000000000E+00 0.  1.
          6    1    1    2  501    0 -0.10865296971E+02  0.84839851108E+02  0.25065814930E+02  0.19461025177E+03  0.17300000000E+03 0.  1.
         -6    1    1    2    0  503  0.10865296971E+02 -0.84839851108E+02 -0.78998967627E+03  0.81322109148E+03  0.17300000000E+03 0.  1.
<mgrwt>
<rscale>  2 0.19298926E+03</rscale>
<asrwt>0</asrwt>
<pdfrwt beam="1">  1       21 0.18685191E-01 0.19298926E+03</pdfrwt>
<pdfrwt beam="2">  1       21 0.13636579E+00 0.19298926E+03</pdfrwt>
<totfact> 0.10029423E+04</totfact>
</mgrwt>
</event>
<event>
 4    1  0.4441180E+000  0.1759483E+03  0.7546771E-02  0.1171783E+00
         21   -1    0    0  503  502  0.00000000000E+00  0.00000000000E+00  0.18550617273E+04  0.18550617273E+04  0.00000000000E+00 0.  1.
         21   -1    0    0  501  503 -0.00000000000E+00 -0.00000000000E+00 -0.20037156384E+02  0.20037156384E+02  0.00000000000E+00 0.  1.
          6    1    1    2  501    0 -0.27852047122E+02  0.15908262150E+02  0.53422448036E+03  0.56245320228E+03  0.17300000000E+03 0.  1.
         -6    1    1    2    0  502  0.27852047122E+02 -0.15908262150E+02  0.13008000906E+04  0.13126456814E+04  0.17300000000E+03 0.  1.
<mgrwt>
<rscale>  2 0.17594831E+03</rscale>
<asrwt>0</asrwt>
<pdfrwt beam="1">  1       21 0.28539398E+00 0.17594831E+03</pdfrwt>
<pdfrwt beam="2">  1       21 0.30826409E-02 0.17594831E+03</pdfrwt>
<totfact> 0.25468609E+04</totfact>
</mgrwt>
</event>
<event>
 4    1  0.4441180E+000  0.2024650E+03  0.7546771E-02  0.1147676E+00
         21   -1    0    0  501  502  0.00000000000E+00  0.00000000000E+00  0.13895919038E+04  0.13895919038E+04  0.00000000000E+00 0.  1.
         21   -1    0    0  502  503 -0.00000000000E+00 -0.00000000000E+00 -0.48661707388E+02  0.48661707388E+02  0.00000000000E+00 0.  1.
          6    1    1    2  501    0  0.10518094905E+03  0.15550833750E+00  0.11217349161E+04  0.11398602011E+04  0.17300000000E+03 0.  1.
         -6    1    1    2    0  503 -0.10518094905E+03 -0.15550833750E+00  0.21919528031E+03  0.29839341001E+03  0.17300000000E+03 0.  1.
<mgrwt>
<rscale>  2 0.20246495E+03</rscale>
<asrwt>0</asrwt>
<pdfrwt beam="1">  1       21 0.21378334E+00 0.20246495E+03</pdfrwt>
<pdfrwt beam="2">  1       21 0.74864176E-02 0.20246495E+03</pdfrwt>
<totfact> 0.14680696E+04</totfact>
</mgrwt>
</event>
<event>
 4    1  0.4441180E+000  0.1898170E+03  0.7546771E-02  0.1158626E+00
         21   -1    0    0  503  502  0.00000000000E+00  0.00000000000E+00  0.20640278958E+03  0.20640278958E+03  0.00000000000E+00 0.  1.
         21   -1    0    0  501  503 -0.00000000000E+00 -0.00000000000E+00 -0.28585103929E+03  0.28585103929E+03  0.00000000000E+00 0.  1.
          6    1    1    2  501    0 -0.72258529732E+02  0.29668137589E+02 -0.19329594888E+03  0.27091293317E+03  0.17300000000E+03 0.  1.
         -6    1    1    2    0  502  0.72258529732E+02 -0.29668137589E+02  0.11384769917E+03  0.22134089571E+03  0.17300000000E+03 0.  1.
<mgrwt>
<rscale>  2 0.18981700E+03</rscale>
<asrwt>0</asrwt>
<pdfrwt beam="1">  1       21 0.31754275E-01 0.18981700E+03</pdfrwt>
<pdfrwt beam="2">  1       21 0.43977083E-01 0.18981700E+03</pdfrwt>
<totfact> 0.47431388E+04</totfact>
</mgrwt>
</event>
<event>
 4    1  0.4441180E+000  0.2304799E+03  0.7546771E-02  0.1126302E+00
         21   -1    0    0  501  502  0.00000000000E+00  0.00000000000E+00  0.11614500462E+04  0.11614500462E+04  0.00000000000E+00 0. -1.
         21   -1    0    0  502  503 -0.00000000000E+00 -0.00000000000E+00 -0.64033018299E+02  0.64033018299E+02  0.00000000000E+00 0. -1.
          6    1    1    2  501    0 -0.64405191365E+02 -0.13799986955E+03  0.87624234098E+03  0.90604725748E+03  0.17300000000E+03 0. -1.
         -6    1    1    2    0  503  0.64405191365E+02  0.13799986955E+03  0.22117468693E+03  0.31943580702E+03  0.17300000000E+03 0. -1.
<mgrwt>
<rscale>  2 0.23047992E+03</rscale>
<asrwt>0</asrwt>
<pdfrwt beam="1">  1       21 0.17868461E+00 0.23047992E+03</pdfrwt>
<pdfrwt beam="2">  1       21 0.98512344E-02 0.23047992E+03</pdfrwt>
<totfact> 0.15065997E+04</totfact>
</mgrwt>
</event>
<event>
 4    1  0.4441180E+000  0.1909655E+03  0.7546771E-02  0.1157593E+00
         21   -1    0    0  503  502  0.00000000000E+00  0.00000000000E+00  0.54647646850E+02  0.54647646850E+02  0.00000000000E+00 0. -1.
         21   -1    0    0  501  503 -0.00000000000E+00 -0.00000000000E+00 -0.12262718935E+04  0.12262718935E+04  0.00000000000E+00 0. -1.
          6    1    1    2  501    0  0.78415716267E+02 -0.19743605826E+02 -0.10182095256E+04  0.10359625826E+04  0.17300000000E+03 0. -1.
         -6    1    1    2    0  502 -0.78415716267E+02  0.19743605826E+02 -0.15341472113E+03  0.24495695783E+03  0.17300000000E+03 0. -1.
<mgrwt>
<rscale>  2 0.19096553E+03</rscale>
<asrwt>0</asrwt>
<pdfrwt beam="1">  1       21 0.84073301E-02 0.19096553E+03</pdfrwt>
<pdfrwt beam="2">  1       21 0.18865722E+00 0.19096553E+03</pdfrwt>
<totfact> 0.17540844E+04</totfact>
</mgrwt>
</event>
<event>
 4    1  0.4441180E+000  0.1819639E+03  0.7546771E-02  0.1165916E+00
         21   -1    0    0  501  502  0.00000000000E+00  0.00000000000E+00  0.74602314572E+02  0.74602314572E+02  0.00000000000E+00 0.  1.
         21   -1    0    0  502  503 -0.00000000000E+00 -0.00000000000E+00 -0.44383386037E+03  0.44383386037E+03  0.00000000000E+00 0.  1.
          6    1    1    2  501    0 -0.11065153661E+02  0.55312026906E+02 -0.18401928992E+03  0.25879327080E+03  0.17300000000E+03 0. -1.
         -6    1    1    2    0  503  0.11065153661E+02 -0.55312026906E+02 -0.18521225587E+03  0.25964290414E+03  0.17300000000E+03 0. -1.
<mgrwt>
<rscale>  2 0.18196389E+03</rscale>
<asrwt>0</asrwt>
<pdfrwt beam="1">  1       21 0.11477279E-01 0.18196389E+03</pdfrwt>
<pdfrwt beam="2">  1       21 0.68282132E-01 0.18196389E+03</pdfrwt>
<totfact> 0.12482672E+05</totfact>
</mgrwt>
</event>
<event>
 4    1  0.4441180E+000  0.1747769E+03  0.7546771E-02  0.1172956E+00
         21   -1    0    0  503  502  0.00000000000E+00  0.00000000000E+00  0.41680477077E+03  0.41680477077E+03  0.00000000000E+00 0. -1.
         21   -1    0    0  501  503 -0.00000000000E+00 -0.00000000000E+00 -0.14851082317E+03  0.14851082317E+03  0.00000000000E+00 0. -1.
          6    1    1    2  501    0 -0.24340509185E+02  0.50516099555E+01 -0.67019409469E+02  0.18718595139E+03  0.17300000000E+03 0. -1.
         -6    1    1    2    0  502  0.24340509185E+02 -0.50516099555E+01  0.33531335707E+03  0.37812964255E+03  0.17300000000E+03 0. -1.
<mgrwt>
<rscale>  2 0.17477694E+03</rscale>
<asrwt>0</asrwt>
<pdfrwt beam="1">  1       21 0.64123810E-01 0.17477694E+03</pdfrwt>
<pdfrwt beam="2">  1       21 0.22847819E-01 0.17477694E+03</pdfrwt>
<totfact> 0.40713368E+04</totfact>
</mgrwt>
</event>
<event>
 4    1  0.4441180E+000  0.2135617E+03  0.7546771E-02  0.1138776E+00
         21   -1    0    0  501  502  0.00000000000E+00  0.00000000000E+00  0.57880998780E+02  0.57880998780E+02  0.00000000000E+00 0. -1.
         21   -1    0    0  502  503 -0.00000000000E+00 -0.00000000000E+00 -0.88830920091E+03  0.88830920091E+03  0.00000000000E+00 0. -1.
          6    1    1    2  501    0  0.12224162963E+03 -0.27139686948E+02 -0.57421456731E+03  0.61264259396E+03  0.17300000000E+03 0. -1.
         -6    1    1    2    0  503 -0.12224162963E+03  0.27139686948E+02 -0.25621363482E+03  0.33354760573E+03  0.17300000000E+03 0. -1.
<mgrwt>
<rscale>  2 0.21356165E+03</rscale>
<asrwt>0</asrwt>
<pdfrwt beam="1">  1       21 0.89047698E-02 0.21356165E+03</pdfrwt>
<pdfrwt beam="2">  1       21 0.13666294E+00 0.21356165E+03</pdfrwt>
<totfact> 0.37443537E+04</totfact>
</mgrwt>
</event>
<event>
 4    1  0.4441180E+000  0.2537610E+03  0.7546771E-02  0.1110951E+00
         21   -1    0    0  501  502  0.00000000000E+00  0.00000000000E+00  0.19369311166E+04  0.19369311166E+04  0.00000000000E+00 0. -1.
         21   -1    0    0  502  503 -0.00000000000E+00 -0.00000000000E+00 -0.33559231443E+03  0.33559231443E+03  0.00000000000E+00 0.  1.
          6    1    1    2  501    0  0.14739131543E+03  0.11287797170E+03  0.18791812576E+04  0.18962375472E+04  0.17300000000E+03 0. -1.
         -6    1    1    2    0  503 -0.14739131543E+03 -0.11287797170E+03 -0.27784245543E+03  0.37628588387E+03  0.17300000000E+03 0.  1.
<mgrwt>
<rscale>  2 0.25376098E+03</rscale>
<asrwt>0</asrwt>
<pdfrwt beam="1">  1       21 0.29798940E+00 0.25376098E+03</pdfrwt>
<pdfrwt beam="2">  1       21 0.51629588E-01 0.25376098E+03</pdfrwt>
<totfact> 0.11463267E+02</totfact>
</mgrwt>
</event>
<event>
 4    1  0.4441180E+000  0.1868541E+03  0.7546771E-02  0.1161330E+00
         21   -1    0    0  503  502  0.00000000000E+00  0.00000000000E+00  0.15733236489E+03  0.15733236489E+03  0.00000000000E+00 0. -1.
         21   -1    0    0  501  503 -0.00000000000E+00 -0.00000000000E+00 -0.22215652314E+03  0.22215652314E+03  0.00000000000E+00 0. -1.
          6    1    1    2  501    0 -0.66128285503E+02  0.24748625830E+02 -0.38665691978E+02  0.19081268396E+03  0.17300000000E+03 0. -1.
         -6    1    1    2    0  502  0.66128285503E+02 -0.24748625830E+02 -0.26158466271E+02  0.18867620407E+03  0.17300000000E+03 0. -1.
<mgrwt>
<rscale>  2 0.18685407E+03</rscale>
<asrwt>0</asrwt>
<pdfrwt beam="1">  1       21 0.24204979E-01 0.18685407E+03</pdfrwt>
<pdfrwt beam="2">  1       21 0.34177927E-01 0.18685407E+03</pdfrwt>
<totfact> 0.13314297E+05</totfact>
</mgrwt>
</event>
<event>
 4    1  0.4441180E+000  0.1895379E+03  0.7546771E-02  0.1158879E+00
         21   -1    0    0  503  502  0.00000000000E+00  0.00000000000E+00  0.20423563133E+04  0.20423563133E+04  0.00000000000E+00 0. -1.
         21   -1    0    0  501  503 -0.00000000000E+00 -0.00000000000E+00 -0.29778935477E+02  0.29778935477E+02  0.00000000000E+00 0. -1.
          6    1    1    2  501    0 -0.77398710751E+02 -0.22467804672E+01  0.34343109251E+03  0.39226206005E+03  0.17300000000E+03 0. -1.
         -6    1    1    2    0  502  0.77398710751E+02  0.22467804672E+01  0.16691462853E+04  0.16798731887E+04  0.17300000000E+03 0. -1.
<mgrwt>
<rscale>  2 0.18953788E+03</rscale>
<asrwt>0</asrwt>
<pdfrwt beam="1">  1       21 0.31420855E+00 0.18953788E+03</pdfrwt>
<pdfrwt beam="2">  1       21 0.45813763E-02 0.18953788E+03</pdfrwt>
<totfact> 0.88476825E+03</totfact>
</mgrwt>
</event>
<event>
 4    1  0.4441180E+000  0.2496994E+03  0.7546771E-02  0.1113495E+00
         21   -1    0    0  501  502  0.00000000000E+00  0.00000000000E+00  0.17910884165E+03  0.17910884165E+03  0.00000000000E+00 0. -1.
         21   -1    0    0  502  503 -0.00000000000E+00 -0.00000000000E+00 -0.42484936849E+03  0.42484936849E+03  0.00000000000E+00 0.  1.
          6    1    1    2  501    0  0.32814978081E+02 -0.17704226462E+03  0.54706835198E+01  0.24975931339E+03  0.17300000000E+03 0. -1.
         -6    1    1    2    0  503 -0.32814978081E+02  0.17704226462E+03 -0.25121121036E+03  0.35419889675E+03  0.17300000000E+03 0.  1.
<mgrwt>
<rscale>  2 0.24969939E+03</rscale>
<asrwt>0</asrwt>
<pdfrwt beam="1">  1       21 0.27555207E-01 0.24969939E+03</pdfrwt>
<pdfrwt beam="2">  1       21 0.65361441E-01 0.24969939E+03</pdfrwt>
<totfact> 0.26271240E+04</totfact>
</mgrwt>
</event>
<event>
 4    1  0.4441180E+000  0.1983104E+03  0.7546771E-02  0.1151172E+00
         21   -1    0    0  501  502  0.00000000000E+00  0.00000000000E+00  0.75493041464E+03  0.75493041464E+03  0.00000000000E+00 0. -1.
         21   -1    0    0  502  503 -0.00000000000E+00 -0.00000000000E+00 -0.52303513067E+02  0.52303513067E+02  0.00000000000E+00 0. -1.
          6    1    1    2  501    0  0.87489265493E+02  0.41757099668E+02  0.37688433687E+03  0.42587419542E+03  0.17300000000E+03 0. -1.
         -6    1    1    2    0  503 -0.87489265493E+02 -0.41757099668E+02  0.32574256471E+03  0.38135973229E+03  0.17300000000E+03 0. -1.
<mgrwt>
<rscale>  2 0.19831043E+03</rscale>
<asrwt>0</asrwt>
<pdfrwt beam="1">  1       21 0.11614313E+00 0.19831043E+03</pdfrwt>
<pdfrwt beam="2">  1       21 0.80466949E-02 0.19831043E+03</pdfrwt>
<totfact> 0.67793367E+04</totfact>
</mgrwt>
</event>
<event>
 4    1  0.4441180E+000  0.2385754E+03  0.7546771E-02  0.1120746E+00
         21   -1    0    0  503  502  0.00000000000E+00  0.00000000000E+00  0.11045610319E+03  0.11045610319E+03  0.00000000000E+00 0.  1.
         21   -1    0    0  501  503 -0.00000000000E+00 -0.00000000000E+00 -0.53266725047E+03  0.53266725047E+03  0.00000000000E+00 0.  1.
          6    1    1    2  501    0  0.10663838455E+03 -0.12496985520E+03 -0.15304498062E+03  0.28344483742E+03  0.17300000000E+03 0.  1.
         -6    1    1    2    0  502 -0.10663838455E+03  0.12496985520E+03 -0.26916616665E+03  0.35967851623E+03  0.17300000000E+03 0.  1.
<mgrwt>
<rscale>  2 0.23857538E+03</rscale>
<asrwt>0</asrwt>
<pdfrwt beam="1">  1       21 0.16993247E-01 0.23857538E+03</pdfrwt>
<pdfrwt beam="2">  1       21 0.81948807E-01 0.23857538E+03</pdfrwt>
<totfact> 0.39750441E+04</totfact>
</mgrwt>
</event>
<event>
 4    1  0.4441180E+000  0.1932877E+03  0.7546771E-02  0.1155529E+00
         21   -1    0    0  503  502  0.00000000000E+00  0.00000000000E+00  0.40915076026E+02  0.40915076026E+02  0.00000000000E+00 0.  1.
         21   -1    0    0  501  503 -0.00000000000E+00 -0.00000000000E+00 -0.96160021243E+03  0.96160021243E+03  0.00000000000E+00 0.  1.
          6    1    1    2  501    0  0.37823768510E+02 -0.77462763266E+02 -0.57289998828E+03  0.60462758268E+03  0.17300000000E+03 0.  1.
         -6    1    1    2    0  502 -0.37823768510E+02  0.77462763266E+02 -0.34778514812E+03  0.39788770578E+03  0.17300000000E+03 0.  1.
<mgrwt>
<rscale>  2 0.19328765E+03</rscale>
<asrwt>0</asrwt>
<pdfrwt beam="1">  1       21 0.62946273E-02 0.19328765E+03</pdfrwt>
<pdfrwt beam="2">  1       21 0.14793849E+00 0.19328765E+03</pdfrwt>
<totfact> 0.56280744E+04</totfact>
</mgrwt>
</event>
<event>
 4    1  0.4441180E+000  0.1868483E+03  0.7546771E-02  0.1161335E+00
         21   -1    0    0  501  502  0.00000000000E+00  0.00000000000E+00  0.40987147339E+03  0.40987147339E+03  0.00000000000E+00 0. -1.
         21   -1    0    0  502  503 -0.00000000000E+00 -0.00000000000E+00 -0.30162977246E+03  0.30162977246E+03  0.00000000000E+00 0. -1.
          6    1    1    2  501    0 -0.48745225282E+02 -0.51060712765E+02  0.35548285804E+03  0.40159725564E+03  0.17300000000E+03 0. -1.
         -6    1    1    2    0  503  0.48745225282E+02  0.51060712765E+02 -0.24724115711E+03  0.30990399020E+03  0.17300000000E+03 0. -1.
<mgrwt>
<rscale>  2 0.18684832E+03</rscale>
<asrwt>0</asrwt>
<pdfrwt beam="1">  1       21 0.63057150E-01 0.18684832E+03</pdfrwt>
<pdfrwt beam="2">  1       21 0.46404580E-01 0.18684832E+03</pdfrwt>
<totfact> 0.10396018E+04</totfact>
</mgrwt>
</event>
<event>
 4    1  0.4441180E+000  0.1863238E+03  0.7546771E-02  0.1161819E+00
         21   -1    0    0  501  502  0.00000000000E+00  0.00000000000E+00  0.18024484248E+03  0.18024484248E+03  0.00000000000E+00 0.  1.
         21   -1    0    0  502  503 -0.00000000000E+00 -0.00000000000E+00 -0.22558240752E+03  0.22558240752E+03  0.00000000000E+00 0.  1.
          6    1    1    2  501    0 -0.26415326754E+02 -0.63951446060E+02  0.54911010939E+02  0.19424668868E+03  0.17300000000E+03 0.  1.
         -6    1    1    2    0  503  0.26415326754E+02  0.63951446060E+02 -0.10024857598E+03  0.21158056132E+03  0.17300000000E+03 0.  1.
<mgrwt>
<rscale>  2 0.18632380E+03</rscale>
<asrwt>0</asrwt>
<pdfrwt beam="1">  1       21 0.27729976E-01 0.18632380E+03</pdfrwt>
<pdfrwt beam="2">  1       21 0.34704986E-01 0.18632380E+03</pdfrwt>
<totfact> 0.99579755E+04</totfact>
</mgrwt>
</event>
<event>
 4    1  0.4441180E+000  0.2472807E+03  0.7546771E-02  0.1115035E+00
         21   -1    0    0  501  502  0.00000000000E+00  0.00000000000E+00  0.81949037824E+02  0.81949037824E+02  0.00000000000E+00 0. -1.
         21   -1    0    0  502  503 -0.00000000000E+00 -0.00000000000E+00 -0.75386881822E+03  0.75386881822E+03  0.00000000000E+00 0. -1.
          6    1    1    2  501    0 -0.17595110027E+03  0.16123501584E+02 -0.37819753278E+03  0.45186406229E+03  0.17300000000E+03 0. -1.
         -6    1    1    2    0  503  0.17595110027E+03 -0.16123501584E+02 -0.29372224761E+03  0.38395379375E+03  0.17300000000E+03 0. -1.
<mgrwt>
<rscale>  2 0.24728073E+03</rscale>
<asrwt>0</asrwt>
<pdfrwt beam="1">  1       21 0.12607544E-01 0.24728073E+03</pdfrwt>
<pdfrwt beam="2">  1       21 0.11597982E+00 0.24728073E+03</pdfrwt>
<totfact> 0.29952312E+04</totfact>
</mgrwt>
</event>
<event>
 4    1  0.4441180E+000  0.2146775E+03  0.7546771E-02  0.1137915E+00
         21   -1    0    0  501  502  0.00000000000E+00  0.00000000000E+00  0.77189102410E+03  0.77189102410E+03  0.00000000000E+00 0. -1.
         21   -1    0    0  502  503 -0.00000000000E+00 -0.00000000000E+00 -0.71483343573E+02  0.71483343573E+02  0.00000000000E+00 0. -1.
          6    1    1    2  501    0 -0.33293810252E+02 -0.12267422026E+03  0.52136831690E+03  0.56383629183E+03  0.17300000000E+03 0. -1.
         -6    1    1    2    0  503  0.33293810252E+02  0.12267422026E+03  0.17903936363E+03  0.27953807584E+03  0.17300000000E+03 0. -1.
<mgrwt>
<rscale>  2 0.21467753E+03</rscale>
<asrwt>0</asrwt>
<pdfrwt beam="1">  1       21 0.11875246E+00 0.21467753E+03</pdfrwt>
<pdfrwt beam="2">  1       21 0.10997438E-01 0.21467753E+03</pdfrwt>
<totfact> 0.36705725E+04</totfact>
</mgrwt>
</event>
<event>
 4    1  0.4441180E+000  0.2501804E+03  0.7546771E-02  0.1113191E+00
         21   -1    0    0  501  502  0.00000000000E+00  0.00000000000E+00  0.26160640865E+03  0.26160640865E+03  0.00000000000E+00 0.  1.
         21   -1    0    0  502  503 -0.00000000000E+00 -0.00000000000E+00 -0.29162284287E+03  0.29162284287E+03  0.00000000000E+00 0.  1.
          6    1    1    2  501    0  0.18022819919E+03 -0.13380014517E+02  0.10221219771E+03  0.27025462426E+03  0.17300000000E+03 0.  1.
         -6    1    1    2    0  503 -0.18022819919E+03  0.13380014517E+02 -0.13222863193E+03  0.28297462726E+03  0.17300000000E+03 0.  1.
<mgrwt>
<rscale>  2 0.25018039E+03</rscale>
<asrwt>0</asrwt>
<pdfrwt beam="1">  1       21 0.40247140E-01 0.25018039E+03</pdfrwt>
<pdfrwt beam="2">  1       21 0.44865052E-01 0.25018039E+03</pdfrwt>
<totfact> 0.27546070E+04</totfact>
</mgrwt>
</event>
<event>
 4    1  0.4441180E+000  0.2065660E+03  0.7546771E-02  0.1144315E+00
         21   -1    0    0  501  502  0.00000000000E+00  0.00000000000E+00  0.72347043200E+03  0.72347043200E+03  0.00000000000E+00 0. -1.
         21   -1    0    0  502  503 -0.00000000000E+00 -0.00000000000E+00 -0.89850076303E+02  0.89850076303E+02  0.00000000000E+00 0. -1.
          6    1    1    2  501    0 -0.10904881166E+03 -0.29135250794E+02  0.55517871816E+03  0.59236214874E+03  0.17300000000E+03 0. -1.
         -6    1    1    2    0  503  0.10904881166E+03  0.29135250794E+02  0.78441637542E+02  0.22095835957E+03  0.17300000000E+03 0. -1.
<mgrwt>
<rscale>  2 0.20656599E+03</rscale>
<asrwt>0</asrwt>
<pdfrwt beam="1">  1       21 0.11130314E+00 0.20656599E+03</pdfrwt>
<pdfrwt beam="2">  1       21 0.13823089E-01 0.20656599E+03</pdfrwt>
<totfact> 0.28645931E+04</totfact>
</mgrwt>
</event>
<event>
 4    1  0.4441180E+000  0.3307894E+03  0.7546771E-02  0.1070788E+00
         21   -1    0    0  501  502  0.00000000000E+00  0.00000000000E+00  0.19409050432E+04  0.19409050432E+04  0.00000000000E+00 0.  1.
         21   -1    0    0  502  503 -0.00000000000E+00 -0.00000000000E+00 -0.59441975719E+02  0.59441975719E+02  0.00000000000E+00 0. -1.
          6    1    1    2  501    0  0.20451760762E+03 -0.19407512355E+03  0.71360316404E+03  0.78654375666E+03  0.17300000000E+03 0.  1.
         -6    1    1    2    0  503 -0.20451760762E+03  0.19407512355E+03  0.11678599034E+04  0.12138032622E+04  0.17300000000E+03 0.  1.
<mgrwt>
<rscale>  2 0.33078937E+03</rscale>
<asrwt>0</asrwt>
<pdfrwt beam="1">  1       21 0.29860073E+00 0.33078937E+03</pdfrwt>
<pdfrwt beam="2">  1       21 0.91449208E-02 0.33078937E+03</pdfrwt>
<totfact> 0.29119512E+03</totfact>
</mgrwt>
</event>
<event>
 4    1  0.4441180E+000  0.1835252E+03  0.7546771E-02  0.1164434E+00
         21   -1    0    0  501  502  0.00000000000E+00  0.00000000000E+00  0.40000381089E+03  0.40000381089E+03  0.00000000000E+00 0. -1.
         21   -1    0    0  502  503 -0.00000000000E+00 -0.00000000000E+00 -0.86057392336E+02  0.86057392336E+02  0.00000000000E+00 0.  1.
          6    1    1    2  501    0  0.47307700604E+02 -0.38916554730E+02  0.19264861236E+03  0.26607330684E+03  0.17300000000E+03 0. -1.
         -6    1    1    2    0  503 -0.47307700604E+02  0.38916554730E+02  0.12129780619E+03  0.21998789638E+03  0.17300000000E+03 0.  1.
<mgrwt>
<rscale>  2 0.18352525E+03</rscale>
<asrwt>0</asrwt>
<pdfrwt beam="1">  1       21 0.61539047E-01 0.18352525E+03</pdfrwt>
<pdfrwt beam="2">  1       21 0.13239599E-01 0.18352525E+03</pdfrwt>
<totfact> 0.12108352E+05</totfact>
</mgrwt>
</event>
<event>
 4    1  0.4441180E+000  0.2188091E+03  0.7546771E-02  0.1134774E+00
         21   -1    0    0  503  502  0.00000000000E+00  0.00000000000E+00  0.36326632198E+03  0.36326632198E+03  0.00000000000E+00 0.  1.
         21   -1    0    0  501  503 -0.00000000000E+00 -0.00000000000E+00 -0.13410050669E+03  0.13410050669E+03  0.00000000000E+00 0. -1.
          6    1    1    2  501    0 -0.85240217707E+01 -0.13370021174E+03  0.14717617316E+03  0.26370102676E+03  0.17300000000E+03 0. -1.
         -6    1    1    2    0  502  0.85240217707E+01  0.13370021174E+03  0.81989642136E+02  0.23366580192E+03  0.17300000000E+03 0. -1.
<mgrwt>
<rscale>  2 0.21880906E+03</rscale>
<asrwt>0</asrwt>
<pdfrwt beam="1">  1       21 0.55887126E-01 0.21880906E+03</pdfrwt>
<pdfrwt beam="2">  1       21 0.20630847E-01 0.21880906E+03</pdfrwt>
<totfact> 0.64909742E+04</totfact>
</mgrwt>
</event>
<event>
 4    1  0.4441180E+000  0.1956539E+03  0.7546771E-02  0.1153458E+00
         21   -1    0    0  501  502  0.00000000000E+00  0.00000000000E+00  0.16377972840E+03  0.16377972840E+03  0.00000000000E+00 0. -1.
         21   -1    0    0  502  503 -0.00000000000E+00 -0.00000000000E+00 -0.23446730098E+03  0.23446730098E+03  0.00000000000E+00 0.  1.
          6    1    1    2  501    0 -0.10309807021E+02 -0.90802930931E+02 -0.24188195278E+02  0.19714343301E+03  0.17300000000E+03 0.  1.
         -6    1    1    2    0  503  0.10309807021E+02  0.90802930931E+02 -0.46499377299E+02  0.20110359638E+03  0.17300000000E+03 0.  1.
<mgrwt>
<rscale>  2 0.19565394E+03</rscale>
<asrwt>0</asrwt>
<pdfrwt beam="1">  1       21 0.25196881E-01 0.19565394E+03</pdfrwt>
<pdfrwt beam="2">  1       21 0.36071893E-01 0.19565394E+03</pdfrwt>
<totfact> 0.11046158E+05</totfact>
</mgrwt>
</event>
<event>
 4    1  0.4441180E+000  0.3158752E+03  0.7546771E-02  0.1077563E+00
         21   -1    0    0  501  502  0.00000000000E+00  0.00000000000E+00  0.11032534505E+04  0.11032534505E+04  0.00000000000E+00 0.  1.
         21   -1    0    0  502  503 -0.00000000000E+00 -0.00000000000E+00 -0.10330135023E+03  0.10330135023E+03  0.00000000000E+00 0. -1.
          6    1    1    2  501    0 -0.59051653538E+02 -0.25760633997E+03  0.71285094504E+03  0.77970096449E+03  0.17300000000E+03 0.  1.
         -6    1    1    2    0  503  0.59051653538E+02  0.25760633997E+03  0.28710115523E+03  0.42685383624E+03  0.17300000000E+03 0. -1.
<mgrwt>
<rscale>  2 0.31587517E+03</rscale>
<asrwt>0</asrwt>
<pdfrwt beam="1">  1       21 0.16973129E+00 0.31587517E+03</pdfrwt>
<pdfrwt beam="2">  1       21 0.15892516E-01 0.31587517E+03</pdfrwt>
<totfact> 0.69793860E+03</totfact>
</mgrwt>
</event>
<event>
 4    1  0.4441180E+000  0.1763298E+03  0.7546771E-02  0.1171403E+00
         21   -1    0    0  503  502  0.00000000000E+00  0.00000000000E+00  0.10565379894E+03  0.10565379894E+03  0.00000000000E+00 0. -1.
         21   -1    0    0  501  503 -0.00000000000E+00 -0.00000000000E+00 -0.29602144066E+03  0.29602144066E+03  0.00000000000E+00 0. -1.
          6    1    1    2  501    0  0.26161863779E+02 -0.21880785229E+02 -0.11057072027E+03  0.20812999798E+03  0.17300000000E+03 0.  1.
         -6    1    1    2    0  502 -0.26161863779E+02  0.21880785229E+02 -0.79796921453E+02  0.19354524162E+03  0.17300000000E+03 0.  1.
<mgrwt>
<rscale>  2 0.17632984E+03</rscale>
<asrwt>0</asrwt>
<pdfrwt beam="1">  1       21 0.16254430E-01 0.17632984E+03</pdfrwt>
<pdfrwt beam="2">  1       21 0.45541760E-01 0.17632984E+03</pdfrwt>
<totfact> 0.15744091E+05</totfact>
</mgrwt>
</event>
<event>
 4    1  0.4441180E+000  0.2110153E+03  0.7546771E-02  0.1140764E+00
         21   -1    0    0  501  502  0.00000000000E+00  0.00000000000E+00  0.21798496757E+03  0.21798496757E+03  0.00000000000E+00 0.  1.
         21   -1    0    0  502  503 -0.00000000000E+00 -0.00000000000E+00 -0.25782188064E+03  0.25782188064E+03  0.00000000000E+00 0.  1.
          6    1    1    2  501    0  0.46027820440E+02 -0.11171349778E+03  0.88507731042E+02  0.22882544504E+03  0.17300000000E+03 0.  1.
         -6    1    1    2    0  503 -0.46027820440E+02  0.11171349778E+03 -0.12834464411E+03  0.24698140317E+03  0.17300000000E+03 0.  1.
<mgrwt>
<rscale>  2 0.21101532E+03</rscale>
<asrwt>0</asrwt>
<pdfrwt beam="1">  1       21 0.33536149E-01 0.21101532E+03</pdfrwt>
<pdfrwt beam="2">  1       21 0.39664905E-01 0.21101532E+03</pdfrwt>
<totfact> 0.52011631E+04</totfact>
</mgrwt>
</event>
<event>
 4    1  0.4441180E+000  0.3187992E+03  0.7546771E-02  0.1076203E+00
         21   -1    0    0  501  502  0.00000000000E+00  0.00000000000E+00  0.24239322680E+03  0.24239322680E+03  0.00000000000E+00 0. -1.
         21   -1    0    0  502  503 -0.00000000000E+00 -0.00000000000E+00 -0.64993912132E+03  0.64993912132E+03  0.00000000000E+00 0.  1.
          6    1    1    2  501    0  0.11353784761E+02  0.26753511270E+03  0.62015827792E+02  0.32477516508E+03  0.17300000000E+03 0. -1.
         -6    1    1    2    0  503 -0.11353784761E+02 -0.26753511270E+03 -0.46956172231E+03  0.56755718303E+03  0.17300000000E+03 0. -1.
<mgrwt>
<rscale>  2 0.31879922E+03</rscale>
<asrwt>0</asrwt>
<pdfrwt beam="1">  1       21 0.37291266E-01 0.31879922E+03</pdfrwt>
<pdfrwt beam="2">  1       21 0.99990633E-01 0.31879922E+03</pdfrwt>
<totfact> 0.52691999E+03</totfact>
</mgrwt>
</event>
<event>
 4    1  0.4441180E+000  0.1871627E+03  0.7546771E-02  0.1161046E+00
         21   -1    0    0  501  502  0.00000000000E+00  0.00000000000E+00  0.15197850380E+03  0.15197850380E+03  0.00000000000E+00 0.  1.
         21   -1    0    0  502  503 -0.00000000000E+00 -0.00000000000E+00 -0.36081902655E+03  0.36081902655E+03  0.00000000000E+00 0.  1.
          6    1    1    2  501    0  0.28032807081E+02 -0.65688977992E+02  0.49674509156E+02  0.19364254946E+03  0.17300000000E+03 0.  1.
         -6    1    1    2    0  503 -0.28032807081E+02  0.65688977992E+02 -0.25851503191E+03  0.31915498089E+03  0.17300000000E+03 0.  1.
<mgrwt>
<rscale>  2 0.18716271E+03</rscale>
<asrwt>0</asrwt>
<pdfrwt beam="1">  1       21 0.23381309E-01 0.18716271E+03</pdfrwt>
<pdfrwt beam="2">  1       21 0.55510619E-01 0.18716271E+03</pdfrwt>
<totfact> 0.52756931E+04</totfact>
</mgrwt>
</event>
<event>
 4    1  0.4441180E+000  0.1901757E+03  0.7546771E-02  0.1158303E+00
         21   -1    0    0  503  502  0.00000000000E+00  0.00000000000E+00  0.28275761146E+03  0.28275761146E+03  0.00000000000E+00 0.  1.
         21   -1    0    0  501  503 -0.00000000000E+00 -0.00000000000E+00 -0.15526982287E+03  0.15526982287E+03  0.00000000000E+00 0.  1.
          6    1    1    2  501    0 -0.70397941016E+02 -0.35804264207E+02 -0.28196079238E+02  0.19225460806E+03  0.17300000000E+03 0.  1.
         -6    1    1    2    0  502  0.70397941016E+02  0.35804264207E+02  0.15568386783E+03  0.24577282628E+03  0.17300000000E+03 0.  1.
<mgrwt>
<rscale>  2 0.19017575E+03</rscale>
<asrwt>0</asrwt>
<pdfrwt beam="1">  1       21 0.43501171E-01 0.19017575E+03</pdfrwt>
<pdfrwt beam="2">  1       21 0.23887665E-01 0.19017575E+03</pdfrwt>
<totfact> 0.83985617E+04</totfact>
</mgrwt>
</event>
<event>
 4    1  0.4441180E+000  0.2201318E+03  0.7546771E-02  0.1133785E+00
         21   -1    0    0  501  502  0.00000000000E+00  0.00000000000E+00  0.93429354575E+02  0.93429354575E+02  0.00000000000E+00 0.  1.
         21   -1    0    0  502  503 -0.00000000000E+00 -0.00000000000E+00 -0.80282732291E+03  0.80282732291E+03  0.00000000000E+00 0. -1.
          6    1    1    2  501    0 -0.13503087352E+03 -0.17195574044E+02 -0.62131041652E+03  0.65915450256E+03  0.17300000000E+03 0. -1.
         -6    1    1    2    0  503  0.13503087352E+03  0.17195574044E+02 -0.88087551815E+02  0.23710217492E+03  0.17300000000E+03 0.  1.
<mgrwt>
<rscale>  2 0.22013183E+03</rscale>
<asrwt>0</asrwt>
<pdfrwt beam="1">  1       21 0.14373747E-01 0.22013183E+03</pdfrwt>
<pdfrwt beam="2">  1       21 0.12351190E+00 0.22013183E+03</pdfrwt>
<totfact> 0.20484187E+04</totfact>
</mgrwt>
</event>
<event>
 4    1  0.4441180E+000  0.2010649E+03  0.7546771E-02  0.1148844E+00
         21   -1    0    0  503  502  0.00000000000E+00  0.00000000000E+00  0.83162420653E+03  0.83162420653E+03  0.00000000000E+00 0. -1.
         21   -1    0    0  501  503 -0.00000000000E+00 -0.00000000000E+00 -0.14124708781E+03  0.14124708781E+03  0.00000000000E+00 0. -1.
          6    1    1    2  501    0  0.65583503400E+02 -0.78720302492E+02 -0.48744957420E+02  0.20688922837E+03  0.17300000000E+03 0. -1.
         -6    1    1    2    0  502 -0.65583503400E+02  0.78720302492E+02  0.73912207615E+03  0.76598206597E+03  0.17300000000E+03 0. -1.
<mgrwt>
<rscale>  2 0.20106487E+03</rscale>
<asrwt>0</asrwt>
<pdfrwt beam="1">  1       21 0.12794218E+00 0.20106487E+03</pdfrwt>
<pdfrwt beam="2">  1       21 0.21730322E-01 0.20106487E+03</pdfrwt>
<totfact> 0.88346136E+03</totfact>
</mgrwt>
</event>
<event>
 4    1  0.4441180E+000  0.3246075E+03  0.7546771E-02  0.1073548E+00
         21   -1    0    0  501  502  0.00000000000E+00  0.00000000000E+00  0.34090310532E+03  0.34090310532E+03  0.00000000000E+00 0. -1.
         21   -1    0    0  502  503 -0.00000000000E+00 -0.00000000000E+00 -0.35138291754E+03  0.35138291754E+03  0.00000000000E+00 0.  1.
          6    1    1    2  501    0  0.16709825125E+03  0.21798896318E+03 -0.12532661960E+03  0.34796088174E+03  0.17300000000E+03 0.  1.
         -6    1    1    2    0  503 -0.16709825125E+03 -0.21798896318E+03  0.11484680738E+03  0.34432514112E+03  0.17300000000E+03 0.  1.
<mgrwt>
<rscale>  2 0.32460748E+03</rscale>
<asrwt>0</asrwt>
<pdfrwt beam="1">  1       21 0.52446632E-01 0.32460748E+03</pdfrwt>
<pdfrwt beam="2">  1       21 0.54058910E-01 0.32460748E+03</pdfrwt>
<totfact> 0.10396273E+04</totfact>
</mgrwt>
</event>
<event>
 4    1  0.4441180E+000  0.2088199E+03  0.7546771E-02  0.1142504E+00
         21   -1    0    0  503  502  0.00000000000E+00  0.00000000000E+00  0.51423292525E+03  0.51423292525E+03  0.00000000000E+00 0.  1.
         21   -1    0    0  501  503 -0.00000000000E+00 -0.00000000000E+00 -0.18278751825E+03  0.18278751825E+03  0.00000000000E+00 0.  1.
          6    1    1    2  501    0 -0.40420933491E+02  0.10974009879E+03 -0.89449197889E+02  0.22717152143E+03  0.17300000000E+03 0.  1.
         -6    1    1    2    0  502  0.40420933491E+02 -0.10974009879E+03  0.42089460489E+03  0.46984892207E+03  0.17300000000E+03 0.  1.
<mgrwt>
<rscale>  2 0.20881988E+03</rscale>
<asrwt>0</asrwt>
<pdfrwt beam="1">  1       21 0.79112757E-01 0.20881988E+03</pdfrwt>
<pdfrwt beam="2">  1       21 0.28121157E-01 0.20881988E+03</pdfrwt>
<totfact> 0.16870045E+04</totfact>
</mgrwt>
</event>
<event>
 4    1  0.4441180E+000  0.1762675E+03  0.7546771E-02  0.1171465E+00
         21   -1    0    0  501  502  0.00000000000E+00  0.00000000000E+00  0.49258605194E+03  0.49258605194E+03  0.00000000000E+00 0. -1.
         21   -1    0    0  502  503 -0.00000000000E+00 -0.00000000000E+00 -0.14175487412E+03  0.14175487412E+03  0.00000000000E+00 0. -1.
          6    1    1    2  501    0 -0.10771562780E+02  0.32018757308E+02  0.41171004640E+03  0.44785643870E+03  0.17300000000E+03 0. -1.
         -6    1    1    2    0  503  0.10771562780E+02 -0.32018757308E+02 -0.60878868577E+02  0.18648448735E+03  0.17300000000E+03 0. -1.
<mgrwt>
<rscale>  2 0.17626749E+03</rscale>
<asrwt>0</asrwt>
<pdfrwt beam="1">  1       21 0.75782469E-01 0.17626749E+03</pdfrwt>
<pdfrwt beam="2">  1       21 0.21808442E-01 0.17626749E+03</pdfrwt>
<totfact> 0.30761065E+04</totfact>
</mgrwt>
</event>
<event>
 4    1  0.4441180E+000  0.1997739E+03  0.7546771E-02  0.1149930E+00
         21   -1    0    0  503  502  0.00000000000E+00  0.00000000000E+00  0.13529216855E+04  0.13529216855E+04  0.00000000000E+00 0.  1.
         21   -1    0    0  501  503 -0.00000000000E+00 -0.00000000000E+00 -0.68473121175E+02  0.68473121175E+02  0.00000000000E+00 0.  1.
          6    1    1    2  501    0 -0.97218609157E+02  0.23003607109E+02  0.10604045697E+03  0.22617294803E+03  0.17300000000E+03 0.  1.
         -6    1    1    2    0  502  0.97218609157E+02 -0.23003607109E+02  0.11784081074E+04  0.11952218587E+04  0.17300000000E+03 0.  1.
<mgrwt>
<rscale>  2 0.19977393E+03</rscale>
<asrwt>0</asrwt>
<pdfrwt beam="1">  1       21 0.20814178E+00 0.19977393E+03</pdfrwt>
<pdfrwt beam="2">  1       21 0.10534327E-01 0.19977393E+03</pdfrwt>
<totfact> 0.87664927E+03</totfact>
</mgrwt>
</event>
<event>
 4    1  0.4441180E+000  0.1808035E+03  0.7546771E-02  0.1167028E+00
         21   -1    0    0  503  502  0.00000000000E+00  0.00000000000E+00  0.32252279102E+02  0.32252279102E+02  0.00000000000E+00 0. -1.
         21   -1    0    0  501  503 -0.00000000000E+00 -0.00000000000E+00 -0.10185055258E+04  0.10185055258E+04  0.00000000000E+00 0. -1.
          6    1    1    2  501    0 -0.26399799669E+02 -0.45430735419E+02 -0.45654911689E+03  0.49104683817E+03  0.17300000000E+03 0.  1.
         -6    1    1    2    0  502  0.26399799669E+02  0.45430735419E+02 -0.52970412979E+03  0.55971096671E+03  0.17300000000E+03 0.  1.
<mgrwt>
<rscale>  2 0.18080349E+03</rscale>
<asrwt>0</asrwt>
<pdfrwt beam="1">  1       21 0.49618888E-02 0.18080349E+03</pdfrwt>
<pdfrwt beam="2">  1       21 0.15669317E+00 0.18080349E+03</pdfrwt>
<totfact> 0.73001589E+04</totfact>
</mgrwt>
</event>
<event>
 4    1  0.4441180E+000  0.1862200E+03  0.7546771E-02  0.1161916E+00
         21   -1    0    0  503  502  0.00000000000E+00  0.00000000000E+00  0.21720432725E+03  0.21720432725E+03  0.00000000000E+00 0. -1.
         21   -1    0    0  501  503 -0.00000000000E+00 -0.00000000000E+00 -0.17086327974E+03  0.17086327974E+03  0.00000000000E+00 0. -1.
          6    1    1    2  501    0 -0.23708764490E+02  0.64705248437E+02 -0.26524396598E+02  0.18809949044E+03  0.17300000000E+03 0. -1.
         -6    1    1    2    0  502  0.23708764490E+02 -0.64705248437E+02  0.72865444105E+02  0.19996811654E+03  0.17300000000E+03 0. -1.
<mgrwt>
<rscale>  2 0.18621996E+03</rscale>
<asrwt>0</asrwt>
<pdfrwt beam="1">  1       21 0.33416050E-01 0.18621996E+03</pdfrwt>
<pdfrwt beam="2">  1       21 0.26286658E-01 0.18621996E+03</pdfrwt>
<totfact> 0.11894090E+05</totfact>
</mgrwt>
</event>
<event>
 4    1  0.4441180E+000  0.3183497E+03  0.7546771E-02  0.1076411E+00
         21   -1    0    0  501  502  0.00000000000E+00  0.00000000000E+00  0.31358061671E+03  0.31358061671E+03  0.00000000000E+00 0.  1.
         21   -1    0    0  502  503 -0.00000000000E+00 -0.00000000000E+00 -0.34443867002E+03  0.34443867002E+03  0.00000000000E+00 0. -1.
          6    1    1    2  501    0  0.25656087791E+03  0.74793382951E+02  0.66286585203E+02  0.32517756009E+03  0.17300000000E+03 0.  1.
         -6    1    1    2    0  503 -0.25656087791E+03 -0.74793382951E+02 -0.97144638512E+02  0.33284172665E+03  0.17300000000E+03 0. -1.
<mgrwt>
<rscale>  2 0.31834970E+03</rscale>
<asrwt>0</asrwt>
<pdfrwt beam="1">  1       21 0.48243172E-01 0.31834970E+03</pdfrwt>
<pdfrwt beam="2">  1       21 0.52990565E-01 0.31834970E+03</pdfrwt>
<totfact> 0.12976364E+04</totfact>
</mgrwt>
</event>
<event>
 4    1  0.4441180E+000  0.1990312E+03  0.7546771E-02  0.1150559E+00
         21   -1    0    0  501  502  0.00000000000E+00  0.00000000000E+00  0.38710142172E+03  0.38710142172E+03  0.00000000000E+00 0.  1.
         21   -1    0    0  502  503 -0.00000000000E+00 -0.00000000000E+00 -0.10293552168E+03  0.10293552168E+03  0.00000000000E+00 0.  1.
          6    1    1    2  501    0  0.88901123240E+02 -0.42201877990E+02  0.16082231979E+03  0.25588518277E+03  0.17300000000E+03 0.  1.
         -6    1    1    2    0  503 -0.88901123240E+02  0.42201877990E+02  0.12334358024E+03  0.23415176063E+03  0.17300000000E+03 0.  1.
<mgrwt>
<rscale>  2 0.19903117E+03</rscale>
<asrwt>0</asrwt>
<pdfrwt beam="1">  1       21 0.59554064E-01 0.19903117E+03</pdfrwt>
<pdfrwt beam="2">  1       21 0.15836234E-01 0.19903117E+03</pdfrwt>
<totfact> 0.93305237E+04</totfact>
</mgrwt>
</event>
<event>
 4    1  0.4441180E+000  0.1949326E+03  0.7546771E-02  0.1154086E+00
         21   -1    0    0  501  502  0.00000000000E+00  0.00000000000E+00  0.73805316655E+03  0.73805316655E+03  0.00000000000E+00 0.  1.
         21   -1    0    0  502  503 -0.00000000000E+00 -0.00000000000E+00 -0.30583299237E+03  0.30583299237E+03  0.00000000000E+00 0.  1.
          6    1    1    2  501    0 -0.66803981140E+02 -0.60057805170E+02  0.69209707658E+03  0.71902508668E+03  0.17300000000E+03 0.  1.
         -6    1    1    2    0  503  0.66803981140E+02  0.60057805170E+02 -0.25987690240E+03  0.32486107224E+03  0.17300000000E+03 0.  1.
<mgrwt>
<rscale>  2 0.19493258E+03</rscale>
<asrwt>0</asrwt>
<pdfrwt beam="1">  1       21 0.11354664E+00 0.19493258E+03</pdfrwt>
<pdfrwt beam="2">  1       21 0.47051230E-01 0.19493258E+03</pdfrwt>
<totfact> 0.26088737E+03</totfact>
</mgrwt>
</event>
<event>
 4    1  0.4441180E+000  0.1944629E+03  0.7546771E-02  0.1154497E+00
         21   -1    0    0  503  502  0.00000000000E+00  0.00000000000E+00  0.15328868276E+03  0.15328868276E+03  0.00000000000E+00 0.  1.
         21   -1    0    0  501  503 -0.00000000000E+00 -0.00000000000E+00 -0.25091463007E+03  0.25091463007E+03  0.00000000000E+00 0.  1.
          6    1    1    2  501    0  0.10287652446E+01 -0.88801894481E+02 -0.75015849898E+02  0.20843035421E+03  0.17300000000E+03 0.  1.
         -6    1    1    2    0  502 -0.10287652446E+01  0.88801894481E+02 -0.22610097408E+02  0.19577295862E+03  0.17300000000E+03 0.  1.
<mgrwt>
<rscale>  2 0.19446294E+03</rscale>
<asrwt>0</asrwt>
<pdfrwt beam="1">  1       21 0.23582874E-01 0.19446294E+03</pdfrwt>
<pdfrwt beam="2">  1       21 0.38602251E-01 0.19446294E+03</pdfrwt>
<totfact> 0.10945927E+05</totfact>
</mgrwt>
</event>
<event>
 4    1  0.4441180E+000  0.2008073E+03  0.7546771E-02  0.1149060E+00
         21   -1    0    0  501  502  0.00000000000E+00  0.00000000000E+00  0.64209519872E+03  0.64209519872E+03  0.00000000000E+00 0.  1.
         21   -1    0    0  502  503 -0.00000000000E+00 -0.00000000000E+00 -0.10136525186E+03  0.10136525186E+03  0.00000000000E+00 0.  1.
          6    1    1    2  501    0 -0.14569240316E+02 -0.10090748169E+03  0.49965299799E+03  0.53849484773E+03  0.17300000000E+03 0.  1.
         -6    1    1    2    0  503  0.14569240316E+02  0.10090748169E+03  0.41076948870E+02  0.20496560285E+03  0.17300000000E+03 0.  1.
<mgrwt>
<rscale>  2 0.20080733E+03</rscale>
<asrwt>0</asrwt>
<pdfrwt beam="1">  1       21 0.98783874E-01 0.20080733E+03</pdfrwt>
<pdfrwt beam="2">  1       21 0.15594655E-01 0.20080733E+03</pdfrwt>
<totfact> 0.30738247E+04</totfact>
</mgrwt>
</event>
<event>
 4    1  0.4441180E+000  0.2996367E+03  0.7546771E-02  0.1085422E+00
         21   -1    0    0  503  502  0.00000000000E+00  0.00000000000E+00  0.62398839169E+03  0.62398839169E+03  0.00000000000E+00 0. -1.
         21   -1    0    0  501  503 -0.00000000000E+00 -0.00000000000E+00 -0.28538844049E+03  0.28538844049E+03  0.00000000000E+00 0.  1.
          6    1    1    2  501    0 -0.42411379170E+02  0.24094490745E+03 -0.15086968454E+03  0.33547553595E+03  0.17300000000E+03 0.  1.
         -6    1    1    2    0  502  0.42411379170E+02 -0.24094490745E+03  0.48946963574E+03  0.57390129623E+03  0.17300000000E+03 0. -1.
<mgrwt>
<rscale>  2 0.29963674E+03</rscale>
<asrwt>0</asrwt>
<pdfrwt beam="1">  1       21 0.95998214E-01 0.29963674E+03</pdfrwt>
<pdfrwt beam="2">  1       21 0.43905914E-01 0.29963674E+03</pdfrwt>
<totfact> 0.41984249E+03</totfact>
</mgrwt>
</event>
<event>
 4    1  0.4441180E+000  0.2245598E+03  0.7546771E-02  0.1130528E+00
         21   -1    0    0  503  502  0.00000000000E+00  0.00000000000E+00  0.26771970716E+03  0.26771970716E+03  0.00000000000E+00 0.  1.
         21   -1    0    0  501  503 -0.00000000000E+00 -0.00000000000E+00 -0.29406955650E+03  0.29406955650E+03  0.00000000000E+00 0. -1.
          6    1    1    2  501    0 -0.12228268204E+03 -0.74465067150E+02 -0.18158962954E+03  0.28879386093E+03  0.17300000000E+03 0. -1.
         -6    1    1    2    0  502  0.12228268204E+03  0.74465067150E+02  0.15523978020E+03  0.27299540273E+03  0.17300000000E+03 0.  1.
<mgrwt>
<rscale>  2 0.22455979E+03</rscale>
<asrwt>0</asrwt>
<pdfrwt beam="1">  1       21 0.41187647E-01 0.22455979E+03</pdfrwt>
<pdfrwt beam="2">  1       21 0.45241470E-01 0.22455979E+03</pdfrwt>
<totfact> 0.26148946E+04</totfact>
</mgrwt>
</event>
<event>
 4    1  0.4441180E+000  0.2640559E+03  0.7546771E-02  0.1104731E+00
         21   -1    0    0  501  502  0.00000000000E+00  0.00000000000E+00  0.50490351068E+03  0.50490351068E+03  0.00000000000E+00 0. -1.
         21   -1    0    0  502  503 -0.00000000000E+00 -0.00000000000E+00 -0.21642516637E+03  0.21642516637E+03  0.00000000000E+00 0. -1.
          6    1    1    2  501    0  0.19515383211E+03 -0.41370286129E+02  0.36121386325E+03  0.44743823458E+03  0.17300000000E+03 0. -1.
         -6    1    1    2    0  503 -0.19515383211E+03  0.41370286129E+02 -0.72735518937E+02  0.27389044247E+03  0.17300000000E+03 0. -1.
<mgrwt>
<rscale>  2 0.26405590E+03</rscale>
<asrwt>0</asrwt>
<pdfrwt beam="1">  1       21 0.77677463E-01 0.26405590E+03</pdfrwt>
<pdfrwt beam="2">  1       21 0.33296180E-01 0.26405590E+03</pdfrwt>
<totfact> 0.12242847E+04</totfact>
</mgrwt>
</event>
<event>
 4    1  0.4441180E+000  0.2038789E+03  0.7546771E-02  0.1146507E+00
         21   -1    0    0  501  502  0.00000000000E+00  0.00000000000E+00  0.21521088945E+03  0.21521088945E+03  0.00000000000E+00 0.  1.
         21   -1    0    0  502  503 -0.00000000000E+00 -0.00000000000E+00 -0.29301509132E+03  0.29301509132E+03  0.00000000000E+00 0.  1.
          6    1    1    2  501    0 -0.89189809377E+02  0.60685988283E+02  0.10945303519E+03  0.23140133574E+03  0.17300000000E+03 0.  1.
         -6    1    1    2    0  503  0.89189809377E+02 -0.60685988283E+02 -0.18725723706E+03  0.27682464504E+03  0.17300000000E+03 0.  1.
<mgrwt>
<rscale>  2 0.20387891E+03</rscale>
<asrwt>0</asrwt>
<pdfrwt beam="1">  1       21 0.33109368E-01 0.20387891E+03</pdfrwt>
<pdfrwt beam="2">  1       21 0.45079244E-01 0.20387891E+03</pdfrwt>
<totfact> 0.41232767E+04</totfact>
</mgrwt>
</event>
<event>
 4    1  0.4441180E+000  0.2262580E+03  0.7546771E-02  0.1129302E+00
         21   -1    0    0  503  502  0.00000000000E+00  0.00000000000E+00  0.11345728463E+04  0.11345728463E+04  0.00000000000E+00 0. -1.
         21   -1    0    0  501  503 -0.00000000000E+00 -0.00000000000E+00 -0.10977011965E+03  0.10977011965E+03  0.00000000000E+00 0.  1.
          6    1    1    2  501    0  0.12543366122E+03  0.74364633663E+02  0.34926619913E+02  0.22893791928E+03  0.17300000000E+03 0.  1.
         -6    1    1    2    0  502 -0.12543366122E+03 -0.74364633663E+02  0.98987610679E+03  0.10154050467E+04  0.17300000000E+03 0. -1.
<mgrwt>
<rscale>  2 0.22625804E+03</rscale>
<asrwt>0</asrwt>
<pdfrwt beam="1">  1       21 0.17454966E+00 0.22625804E+03</pdfrwt>
<pdfrwt beam="2">  1       21 0.16887711E-01 0.22625804E+03</pdfrwt>
<totfact> 0.60950086E+03</totfact>
</mgrwt>
</event>
<event>
 4    1  0.4441180E+000  0.1993829E+03  0.7546771E-02  0.1150261E+00
         21   -1    0    0  503  502  0.00000000000E+00  0.00000000000E+00  0.62595691749E+03  0.62595691749E+03  0.00000000000E+00 0. -1.
         21   -1    0    0  501  503 -0.00000000000E+00 -0.00000000000E+00 -0.19282118508E+03  0.19282118508E+03  0.00000000000E+00 0. -1.
          6    1    1    2  501    0 -0.90726722087E+02  0.39914741310E+02 -0.11869046290E+03  0.23203652871E+03  0.17300000000E+03 0. -1.
         -6    1    1    2    0  502  0.90726722087E+02 -0.39914741310E+02  0.55182619530E+03  0.58674157386E+03  0.17300000000E+03 0. -1.
<mgrwt>
<rscale>  2 0.19938286E+03</rscale>
<asrwt>0</asrwt>
<pdfrwt beam="1">  1       21 0.96301063E-01 0.19938286E+03</pdfrwt>
<pdfrwt beam="2">  1       21 0.29664798E-01 0.19938286E+03</pdfrwt>
<totfact> 0.97265997E+03</totfact>
</mgrwt>
</event>
<event>
 4    1  0.4441180E+000  0.2331453E+03  0.7546771E-02  0.1124445E+00
         21   -1    0    0  501  502  0.00000000000E+00  0.00000000000E+00  0.27651248769E+03  0.27651248769E+03  0.00000000000E+00 0. -1.
         21   -1    0    0  502  503 -0.00000000000E+00 -0.00000000000E+00 -0.29189493425E+03  0.29189493425E+03  0.00000000000E+00 0. -1.
          6    1    1    2  501    0  0.14404663773E+03  0.60649033482E+02  0.15471312313E+03  0.27980866600E+03  0.17300000000E+03 0. -1.
         -6    1    1    2    0  503 -0.14404663773E+03 -0.60649033482E+02 -0.17009556969E+03  0.28859875594E+03  0.17300000000E+03 0. -1.
<mgrwt>
<rscale>  2 0.23314532E+03</rscale>
<asrwt>0</asrwt>
<pdfrwt beam="1">  1       21 0.42540383E-01 0.23314532E+03</pdfrwt>
<pdfrwt beam="2">  1       21 0.44906913E-01 0.23314532E+03</pdfrwt>
<totfact> 0.24749753E+04</totfact>
</mgrwt>
</event>
<event>
 4    1  0.4441180E+000  0.1856915E+03  0.7546771E-02  0.1162406E+00
         21   -1    0    0  501  502  0.00000000000E+00  0.00000000000E+00  0.11642902695E+03  0.11642902695E+03  0.00000000000E+00 0. -1.
         21   -1    0    0  502  503 -0.00000000000E+00 -0.00000000000E+00 -0.29952135352E+03  0.29952135352E+03  0.00000000000E+00 0. -1.
          6    1    1    2  501    0 -0.14553672903E+02  0.65882763231E+02 -0.69506446620E+02  0.19827378548E+03  0.17300000000E+03 0. -1.
         -6    1    1    2    0  503  0.14553672903E+02 -0.65882763231E+02 -0.11358587994E+03  0.21767659499E+03  0.17300000000E+03 0. -1.
<mgrwt>
<rscale>  2 0.18569154E+03</rscale>
<asrwt>0</asrwt>
<pdfrwt beam="1">  1       21 0.17912158E-01 0.18569154E+03</pdfrwt>
<pdfrwt beam="2">  1       21 0.46080207E-01 0.18569154E+03</pdfrwt>
<totfact> 0.12816220E+05</totfact>
</mgrwt>
</event>
<event>
 4    1  0.4441180E+000  0.2011660E+03  0.7546771E-02  0.1148759E+00
         21   -1    0    0  503  502  0.00000000000E+00  0.00000000000E+00  0.43421762908E+03  0.43421762908E+03  0.00000000000E+00 0.  1.
         21   -1    0    0  501  503 -0.00000000000E+00 -0.00000000000E+00 -0.10305973582E+03  0.10305973582E+03  0.00000000000E+00 0. -1.
          6    1    1    2  501    0  0.70922076369E+02 -0.74221508909E+02  0.82474723240E+02  0.21741631327E+03  0.17300000000E+03 0. -1.
         -6    1    1    2    0  502 -0.70922076369E+02  0.74221508909E+02  0.24868317002E+03  0.31986105164E+03  0.17300000000E+03 0.  1.
<mgrwt>
<rscale>  2 0.20116603E+03</rscale>
<asrwt>0</asrwt>
<pdfrwt beam="1">  1       21 0.66802711E-01 0.20116603E+03</pdfrwt>
<pdfrwt beam="2">  1       21 0.15855344E-01 0.20116603E+03</pdfrwt>
<totfact> 0.72513641E+04</totfact>
</mgrwt>
</event>
<event>
 4    1  0.4441180E+000  0.2594606E+03  0.7546771E-02  0.1107468E+00
         21   -1    0    0  503  502  0.00000000000E+00  0.00000000000E+00  0.13766614758E+03  0.13766614758E+03  0.00000000000E+00 0. -1.
         21   -1    0    0  501  503 -0.00000000000E+00 -0.00000000000E+00 -0.54039064132E+03  0.54039064132E+03  0.00000000000E+00 0. -1.
          6    1    1    2  501    0 -0.19331049593E+03 -0.46767732771E+01 -0.30590434661E+03  0.40112004353E+03  0.17300000000E+03 0. -1.
         -6    1    1    2    0  502  0.19331049593E+03  0.46767732771E+01 -0.96820147132E+02  0.27693674537E+03  0.17300000000E+03 0. -1.
<mgrwt>
<rscale>  2 0.25946063E+03</rscale>
<asrwt>0</asrwt>
<pdfrwt beam="1">  1       21 0.21179408E-01 0.25946063E+03</pdfrwt>
<pdfrwt beam="2">  1       21 0.83137021E-01 0.25946063E+03</pdfrwt>
<totfact> 0.25244053E+04</totfact>
</mgrwt>
</event>
<event>
 4    1  0.4441180E+000  0.1895640E+03  0.7546771E-02  0.1158855E+00
         21   -1    0    0  501  502  0.00000000000E+00  0.00000000000E+00  0.20998246214E+02  0.20998246214E+02  0.00000000000E+00 0. -1.
         21   -1    0    0  502  503 -0.00000000000E+00 -0.00000000000E+00 -0.17115027792E+04  0.17115027792E+04  0.00000000000E+00 0.  1.
          6    1    1    2  501    0  0.47504522065E+02 -0.61227676479E+02 -0.85444669526E+03  0.87522206498E+03  0.17300000000E+03 0. -1.
         -6    1    1    2    0  503 -0.47504522065E+02  0.61227676479E+02 -0.83605783771E+03  0.85727896042E+03  0.17300000000E+03 0.  1.
<mgrwt>
<rscale>  2 0.18956399E+03</rscale>
<asrwt>0</asrwt>
<pdfrwt beam="1">  1       21 0.32304987E-02 0.18956399E+03</pdfrwt>
<pdfrwt beam="2">  1       21 0.26330818E+00 0.18956399E+03</pdfrwt>
<totfact> 0.31194259E+04</totfact>
</mgrwt>
</event>
<event>
 4    1  0.4441180E+000  0.2382448E+03  0.7546771E-02  0.1120968E+00
         21   -1    0    0  501  502  0.00000000000E+00  0.00000000000E+00  0.47249853762E+03  0.47249853762E+03  0.00000000000E+00 0.  1.
         21   -1    0    0  502  503 -0.00000000000E+00 -0.00000000000E+00 -0.19222305632E+03  0.19222305632E+03  0.00000000000E+00 0.  1.
          6    1    1    2  501    0  0.13365080055E+03  0.94705126005E+02  0.34368156365E+03  0.41818370912E+03  0.17300000000E+03 0.  1.
         -6    1    1    2    0  503 -0.13365080055E+03 -0.94705126005E+02 -0.63406082345E+02  0.24653788483E+03  0.17300000000E+03 0.  1.
<mgrwt>
<rscale>  2 0.23824483E+03</rscale>
<asrwt>0</asrwt>
<pdfrwt beam="1">  1       21 0.72692082E-01 0.23824483E+03</pdfrwt>
<pdfrwt beam="2">  1       21 0.29572778E-01 0.23824483E+03</pdfrwt>
<totfact> 0.18194550E+04</totfact>
</mgrwt>
</event>
<event>
 4    1  0.4441180E+000  0.1773025E+03  0.7546771E-02  0.1170439E+00
         21   -1    0    0  503  502  0.00000000000E+00  0.00000000000E+00  0.22176726594E+02  0.22176726594E+02  0.00000000000E+00 0.  1.
         21   -1    0    0  501  503 -0.00000000000E+00 -0.00000000000E+00 -0.14187925012E+04  0.14187925012E+04  0.00000000000E+00 0.  1.
          6    1    1    2  501    0 -0.20607251750E+02 -0.32901802598E+02 -0.67682035219E+03  0.69965847138E+03  0.17300000000E+03 0.  1.
         -6    1    1    2    0  502  0.20607251750E+02  0.32901802598E+02 -0.71979542238E+03  0.74131075637E+03  0.17300000000E+03 0.  1.
<mgrwt>
<rscale>  2 0.17730253E+03</rscale>
<asrwt>0</asrwt>
<pdfrwt beam="1">  1       21 0.34118049E-02 0.17730253E+03</pdfrwt>
<pdfrwt beam="2">  1       21 0.21827572E+00 0.17730253E+03</pdfrwt>
<totfact> 0.53254365E+04</totfact>
</mgrwt>
</event>
<event>
 4    1  0.4441180E+000  0.3717739E+03  0.7546771E-02  0.1054017E+00
         21   -1    0    0  501  502  0.00000000000E+00  0.00000000000E+00  0.22657630776E+03  0.22657630776E+03  0.00000000000E+00 0.  1.
         21   -1    0    0  502  503 -0.00000000000E+00 -0.00000000000E+00 -0.89130279014E+03  0.89130279014E+03  0.00000000000E+00 0. -1.
          6    1    1    2  501    0 -0.47544264224E+02  0.32561696844E+03 -0.18366955830E+02  0.37222736635E+03  0.17300000000E+03 0. -1.
         -6    1    1    2    0  503  0.47544264224E+02 -0.32561696844E+03 -0.64635952655E+03  0.74565173155E+03  0.17300000000E+03 0. -1.
<mgrwt>
<rscale>  2 0.37177395E+03</rscale>
<asrwt>0</asrwt>
<pdfrwt beam="1">  1       21 0.34857893E-01 0.37177395E+03</pdfrwt>
<pdfrwt beam="2">  1       21 0.13712351E+00 0.37177395E+03</pdfrwt>
<totfact> 0.26689248E+03</totfact>
</mgrwt>
</event>
<event>
 4    1  0.4441180E+000  0.1921458E+03  0.7546771E-02  0.1156540E+00
         21   -1    0    0  501  502  0.00000000000E+00  0.00000000000E+00  0.72575103359E+03  0.72575103359E+03  0.00000000000E+00 0. -1.
         21   -1    0    0  502  503 -0.00000000000E+00 -0.00000000000E+00 -0.69489794711E+02  0.69489794711E+02  0.00000000000E+00 0. -1.
          6    1    1    2  501    0 -0.59398889573E+02 -0.58845357845E+02  0.53394643473E+03  0.56746700291E+03  0.17300000000E+03 0. -1.
         -6    1    1    2    0  503  0.59398889573E+02  0.58845357845E+02  0.12231480415E+03  0.22777382540E+03  0.17300000000E+03 0. -1.
<mgrwt>
<rscale>  2 0.19214579E+03</rscale>
<asrwt>0</asrwt>
<pdfrwt beam="1">  1       21 0.11165400E+00 0.19214579E+03</pdfrwt>
<pdfrwt beam="2">  1       21 0.10690738E-01 0.19214579E+03</pdfrwt>
<totfact> 0.45426906E+04</totfact>
</mgrwt>
</event>
<event>
 4    1  0.4441180E+000  0.2002990E+03  0.7546771E-02  0.1149487E+00
         21   -1    0    0  501  502  0.00000000000E+00  0.00000000000E+00  0.49540894239E+02  0.49540894239E+02  0.00000000000E+00 0. -1.
         21   -1    0    0  502  503 -0.00000000000E+00 -0.00000000000E+00 -0.82663360089E+03  0.82663360089E+03  0.00000000000E+00 0. -1.
          6    1    1    2  501    0 -0.82012386737E+02  0.58861274404E+02 -0.32608508660E+03  0.38268938437E+03  0.17300000000E+03 0. -1.
         -6    1    1    2    0  503  0.82012386737E+02 -0.58861274404E+02 -0.45100762005E+03  0.49348511077E+03  0.17300000000E+03 0. -1.
<mgrwt>
<rscale>  2 0.20029898E+03</rscale>
<asrwt>0</asrwt>
<pdfrwt beam="1">  1       21 0.76216763E-02 0.20029898E+03</pdfrwt>
<pdfrwt beam="2">  1       21 0.12717440E+00 0.20029898E+03</pdfrwt>
<totfact> 0.59401295E+04</totfact>
</mgrwt>
</event>
<event>
 4    1  0.4441180E+000  0.2182250E+03  0.7546771E-02  0.1135213E+00
         21   -1    0    0  503  502  0.00000000000E+00  0.00000000000E+00  0.18441741321E+04  0.18441741321E+04  0.00000000000E+00 0.  1.
         21   -1    0    0  501  503 -0.00000000000E+00 -0.00000000000E+00 -0.69115806566E+02  0.69115806566E+02  0.00000000000E+00 0.  1.
          6    1    1    2  501    0 -0.38585915608E+02  0.12729600801E+03  0.13040018365E+03  0.25421714033E+03  0.17300000000E+03 0.  1.
         -6    1    1    2    0  502  0.38585915608E+02 -0.12729600801E+03  0.16446581419E+04  0.16590727984E+04  0.17300000000E+03 0.  1.
<mgrwt>
<rscale>  2 0.21822499E+03</rscale>
<asrwt>0</asrwt>
<pdfrwt beam="1">  1       21 0.28371906E+00 0.21822499E+03</pdfrwt>
<pdfrwt beam="2">  1       21 0.10633202E-01 0.21822499E+03</pdfrwt>
<totfact> 0.29960920E+03</totfact>
</mgrwt>
</event>
<event>
 4    1  0.4441180E+000  0.1814885E+03  0.7546771E-02  0.1166370E+00
         21   -1    0    0  501  502  0.00000000000E+00  0.00000000000E+00  0.56135254503E+02  0.56135254503E+02  0.00000000000E+00 0.  1.
         21   -1    0    0  502  503 -0.00000000000E+00 -0.00000000000E+00 -0.82957831951E+03  0.82957831951E+03  0.00000000000E+00 0. -1.
          6    1    1    2  501    0  0.53161515820E+02  0.13525041663E+02 -0.14712919876E+03  0.23363448941E+03  0.17300000000E+03 0.  1.
         -6    1    1    2    0  503 -0.53161515820E+02 -0.13525041663E+02 -0.62631386625E+03  0.65207908460E+03  0.17300000000E+03 0. -1.
<mgrwt>
<rscale>  2 0.18148849E+03</rscale>
<asrwt>0</asrwt>
<pdfrwt beam="1">  1       21 0.86361933E-02 0.18148849E+03</pdfrwt>
<pdfrwt beam="2">  1       21 0.12762743E+00 0.18148849E+03</pdfrwt>
<totfact> 0.47827096E+04</totfact>
</mgrwt>
</event>
<event>
 4    1  0.4441180E+000  0.2114950E+03  0.7546771E-02  0.1140388E+00
         21   -1    0    0  503  502  0.00000000000E+00  0.00000000000E+00  0.74595360042E+03  0.74595360042E+03  0.00000000000E+00 0. -1.
         21   -1    0    0  501  503 -0.00000000000E+00 -0.00000000000E+00 -0.10318573005E+03  0.10318573005E+03  0.00000000000E+00 0. -1.
          6    1    1    2  501    0 -0.12105759168E+03  0.12090936422E+02  0.59616814075E+03  0.63257140568E+03  0.17300000000E+03 0. -1.
         -6    1    1    2    0  502  0.12105759168E+03 -0.12090936422E+02  0.46599729621E+02  0.21656792479E+03  0.17300000000E+03 0. -1.
<mgrwt>
<rscale>  2 0.21149499E+03</rscale>
<asrwt>0</asrwt>
<pdfrwt beam="1">  1       21 0.11476209E+00 0.21149499E+03</pdfrwt>
<pdfrwt beam="2">  1       21 0.15874728E-01 0.21149499E+03</pdfrwt>
<totfact> 0.20600405E+04</totfact>
</mgrwt>
</event>
<event>
 4    1  0.4441180E+000  0.1917156E+03  0.7546771E-02  0.1156923E+00
         21   -1    0    0  501  502  0.00000000000E+00  0.00000000000E+00  0.26325077277E+03  0.26325077277E+03  0.00000000000E+00 0.  1.
         21   -1    0    0  502  503 -0.00000000000E+00 -0.00000000000E+00 -0.20163754040E+03  0.20163754040E+03  0.00000000000E+00 0.  1.
          6    1    1    2  501    0 -0.39536816285E+02 -0.72544445611E+02  0.15971853877E+03  0.24952929298E+03  0.17300000000E+03 0.  1.
         -6    1    1    2    0  503  0.39536816285E+02  0.72544445611E+02 -0.98105306398E+02  0.21535902018E+03  0.17300000000E+03 0.  1.
<mgrwt>
<rscale>  2 0.19171556E+03</rscale>
<asrwt>0</asrwt>
<pdfrwt beam="1">  1       21 0.40500119E-01 0.19171556E+03</pdfrwt>
<pdfrwt beam="2">  1       21 0.31021160E-01 0.19171556E+03</pdfrwt>
<totfact> 0.58661929E+04</totfact>
</mgrwt>
</event>
<event>
 4    1  0.4441180E+000  0.2068008E+03  0.7546771E-02  0.1144125E+00
         21   -1    0    0  501  502  0.00000000000E+00  0.00000000000E+00  0.13269578913E+04  0.13269578913E+04  0.00000000000E+00 0.  1.
         21   -1    0    0  502  503 -0.00000000000E+00 -0.00000000000E+00 -0.53349975969E+03  0.53349975969E+03  0.00000000000E+00 0.  1.
          6    1    1    2  501    0 -0.72409209218E+02  0.87146211417E+02  0.12984223919E+04  0.13147879158E+04  0.17300000000E+03 0.  1.
         -6    1    1    2    0  503  0.72409209218E+02 -0.87146211417E+02 -0.50496426029E+03  0.54566973520E+03  0.17300000000E+03 0.  1.
<mgrwt>
<rscale>  2 0.20680076E+03</rscale>
<asrwt>0</asrwt>
<pdfrwt beam="1">  1       21 0.20414737E+00 0.20680076E+03</pdfrwt>
<pdfrwt beam="2">  1       21 0.82076887E-01 0.20680076E+03</pdfrwt>
<totfact> 0.16085969E+02</totfact>
</mgrwt>
</event>
<event>
 4    1  0.4441180E+000  0.1895525E+03  0.7546771E-02  0.1158866E+00
         21   -1    0    0  503  502  0.00000000000E+00  0.00000000000E+00  0.11484425391E+04  0.11484425391E+04  0.00000000000E+00 0. -1.
         21   -1    0    0  501  503 -0.00000000000E+00 -0.00000000000E+00 -0.50113480533E+02  0.50113480533E+02  0.00000000000E+00 0. -1.
          6    1    1    2  501    0  0.32377609783E+02 -0.70376323769E+02  0.18184202993E+03  0.26267215386E+03  0.17300000000E+03 0. -1.
         -6    1    1    2    0  502 -0.32377609783E+02  0.70376323769E+02  0.91648702868E+03  0.93588386582E+03  0.17300000000E+03 0. -1.
<mgrwt>
<rscale>  2 0.18955246E+03</rscale>
<asrwt>0</asrwt>
<pdfrwt beam="1">  1       21 0.17668345E+00 0.18955246E+03</pdfrwt>
<pdfrwt beam="2">  1       21 0.77097671E-02 0.18955246E+03</pdfrwt>
<totfact> 0.24586877E+04</totfact>
</mgrwt>
</event>
<event>
 4    1  0.4441180E+000  0.1937545E+03  0.7546771E-02  0.1155118E+00
         21   -1    0    0  503  502  0.00000000000E+00  0.00000000000E+00  0.20959712686E+04  0.20959712686E+04  0.00000000000E+00 0. -1.
         21   -1    0    0  501  503 -0.00000000000E+00 -0.00000000000E+00 -0.18895372948E+02  0.18895372948E+02  0.00000000000E+00 0. -1.
          6    1    1    2  501    0  0.84545224368E+02  0.21538428710E+02  0.79717528351E+03  0.82038358803E+03  0.17300000000E+03 0. -1.
         -6    1    1    2    0  502 -0.84545224368E+02 -0.21538428710E+02  0.12799006121E+04  0.12944830535E+04  0.17300000000E+03 0. -1.
<mgrwt>
<rscale>  2 0.19375448E+03</rscale>
<asrwt>0</asrwt>
<pdfrwt beam="1">  1       21 0.32245694E+00 0.19375448E+03</pdfrwt>
<pdfrwt beam="2">  1       21 0.29069821E-02 0.19375448E+03</pdfrwt>
<totfact> 0.16863450E+04</totfact>
</mgrwt>
</event>
<event>
 4    1  0.4441180E+000  0.4425312E+03  0.7546771E-02  0.1029973E+00
         21   -1    0    0  503  502  0.00000000000E+00  0.00000000000E+00  0.54288693594E+03  0.54288693594E+03  0.00000000000E+00 0. -1.
         21   -1    0    0  501  503 -0.00000000000E+00 -0.00000000000E+00 -0.37220102802E+03  0.37220102802E+03  0.00000000000E+00 0.  1.
          6    1    1    2  501    0  0.21812146536E+03 -0.34398827017E+03  0.50080037249E+01  0.44255958216E+03  0.17300000000E+03 0.  1.
         -6    1    1    2    0  502 -0.21812146536E+03  0.34398827017E+03  0.16567790420E+03  0.47252838180E+03  0.17300000000E+03 0. -1.
<mgrwt>
<rscale>  2 0.44253125E+03</rscale>
<asrwt>0</asrwt>
<pdfrwt beam="1">  1       21 0.83521067E-01 0.44253125E+03</pdfrwt>
<pdfrwt beam="2">  1       21 0.57261696E-01 0.44253125E+03</pdfrwt>
<totfact> 0.31199803E+03</totfact>
</mgrwt>
</event>
<event>
 4    1  0.4441180E+000  0.2156243E+03  0.7546771E-02  0.1137188E+00
         21   -1    0    0  503  502  0.00000000000E+00  0.00000000000E+00  0.80728589841E+02  0.80728589841E+02  0.00000000000E+00 0.  1.
         21   -1    0    0  501  503 -0.00000000000E+00 -0.00000000000E+00 -0.86122142864E+03  0.86122142864E+03  0.00000000000E+00 0.  1.
          6    1    1    2  501    0 -0.70120101816E+02 -0.10792604595E+03 -0.66131943598E+03  0.69558411172E+03  0.17300000000E+03 0.  1.
         -6    1    1    2    0  502  0.70120101816E+02  0.10792604595E+03 -0.11917340282E+03  0.24636590676E+03  0.17300000000E+03 0.  1.
<mgrwt>
<rscale>  2 0.21562435E+03</rscale>
<asrwt>0</asrwt>
<pdfrwt beam="1">  1       21 0.12419783E-01 0.21562435E+03</pdfrwt>
<pdfrwt beam="2">  1       21 0.13249560E+00 0.21562435E+03</pdfrwt>
<totfact> 0.22407216E+04</totfact>
</mgrwt>
</event>
<event>
 4    1  0.4441180E+000  0.2433897E+03  0.7546771E-02  0.1117555E+00
         21   -1    0    0  501  502  0.00000000000E+00  0.00000000000E+00  0.40941141572E+03  0.40941141572E+03  0.00000000000E+00 0.  1.
         21   -1    0    0  502  503 -0.00000000000E+00 -0.00000000000E+00 -0.15438986933E+03  0.15438986933E+03  0.00000000000E+00 0. -1.
          6    1    1    2  501    0  0.71584864972E+02  0.15551572161E+03  0.19816304689E+03  0.31385844853E+03  0.17300000000E+03 0.  1.
         -6    1    1    2    0  503 -0.71584864972E+02 -0.15551572161E+03  0.56858499495E+02  0.24994283652E+03  0.17300000000E+03 0. -1.
<mgrwt>
<rscale>  2 0.24338967E+03</rscale>
<asrwt>0</asrwt>
<pdfrwt beam="1">  1       21 0.62986371E-01 0.24338967E+03</pdfrwt>
<pdfrwt beam="2">  1       21 0.23752288E-01 0.24338967E+03</pdfrwt>
<totfact> 0.38019169E+04</totfact>
</mgrwt>
</event>
<event>
 4    1  0.4441180E+000  0.3286359E+03  0.7546771E-02  0.1071742E+00
         21   -1    0    0  503  502  0.00000000000E+00  0.00000000000E+00  0.12764977228E+04  0.12764977228E+04  0.00000000000E+00 0.  1.
         21   -1    0    0  501  503 -0.00000000000E+00 -0.00000000000E+00 -0.14407060695E+03  0.14407060695E+03  0.00000000000E+00 0. -1.
          6    1    1    2  501    0  0.25495122519E+03  0.11433466137E+03  0.10989567188E+03  0.34652359330E+03  0.17300000000E+03 0. -1.
         -6    1    1    2    0  502 -0.25495122519E+03 -0.11433466137E+03  0.10225314439E+04  0.10740447364E+04  0.17300000000E+03 0.  1.
<mgrwt>
<rscale>  2 0.32863588E+03</rscale>
<asrwt>0</asrwt>
<pdfrwt beam="1">  1       21 0.19638426E+00 0.32863588E+03</pdfrwt>
<pdfrwt beam="2">  1       21 0.22164710E-01 0.32863588E+03</pdfrwt>
<totfact> 0.24292831E+03</totfact>
</mgrwt>
</event>
<event>
 4    1  0.4441180E+000  0.1874126E+03  0.7546771E-02  0.1160816E+00
         21   -1    0    0  501  502  0.00000000000E+00  0.00000000000E+00  0.10649390639E+03  0.10649390639E+03  0.00000000000E+00 0.  1.
         21   -1    0    0  502  503 -0.00000000000E+00 -0.00000000000E+00 -0.33062357067E+03  0.33062357067E+03  0.00000000000E+00 0. -1.
          6    1    1    2  501    0  0.10628219747E+02 -0.71284829766E+02 -0.10126891173E+03  0.21302318769E+03  0.17300000000E+03 0. -1.
         -6    1    1    2    0  503 -0.10628219747E+02  0.71284829766E+02 -0.12286075256E+03  0.22409428937E+03  0.17300000000E+03 0. -1.
<mgrwt>
<rscale>  2 0.18741261E+03</rscale>
<asrwt>0</asrwt>
<pdfrwt beam="1">  1       21 0.16383678E-01 0.18741261E+03</pdfrwt>
<pdfrwt beam="2">  1       21 0.50865164E-01 0.18741261E+03</pdfrwt>
<totfact> 0.12296799E+05</totfact>
</mgrwt>
</event>
<event>
 4    1  0.4441180E+000  0.1902158E+03  0.7546771E-02  0.1158267E+00
         21   -1    0    0  501  502  0.00000000000E+00  0.00000000000E+00  0.22884548685E+03  0.22884548685E+03  0.00000000000E+00 0.  1.
         21   -1    0    0  502  503 -0.00000000000E+00 -0.00000000000E+00 -0.36905085515E+03  0.36905085515E+03  0.00000000000E+00 0.  1.
          6    1    1    2  501    0  0.73637657825E+02 -0.28819334674E+02  0.15591181371E+03  0.24594827171E+03  0.17300000000E+03 0.  1.
         -6    1    1    2    0  503 -0.73637657825E+02  0.28819334674E+02 -0.29611718201E+03  0.35194807029E+03  0.17300000000E+03 0.  1.
<mgrwt>
<rscale>  2 0.19021582E+03</rscale>
<asrwt>0</asrwt>
<pdfrwt beam="1">  1       21 0.35206998E-01 0.19021582E+03</pdfrwt>
<pdfrwt beam="2">  1       21 0.56777054E-01 0.19021582E+03</pdfrwt>
<totfact> 0.22710480E+04</totfact>
</mgrwt>
</event>
<event>
 4    1  0.4441180E+000  0.2170141E+03  0.7546771E-02  0.1136129E+00
         21   -1    0    0  501  502  0.00000000000E+00  0.00000000000E+00  0.37067351578E+02  0.37067351578E+02  0.00000000000E+00 0. -1.
         21   -1    0    0  502  503 -0.00000000000E+00 -0.00000000000E+00 -0.12779946920E+04  0.12779946920E+04  0.00000000000E+00 0. -1.
          6    1    1    2  501    0 -0.98905473511E+02 -0.85929117123E+02 -0.57020423866E+03  0.61010489233E+03  0.17300000000E+03 0. -1.
         -6    1    1    2    0  503  0.98905473511E+02  0.85929117123E+02 -0.67072310181E+03  0.70495715129E+03  0.17300000000E+03 0. -1.
<mgrwt>
<rscale>  2 0.21701407E+03</rscale>
<asrwt>0</asrwt>
<pdfrwt beam="1">  1       21 0.57026697E-02 0.21701407E+03</pdfrwt>
<pdfrwt beam="2">  1       21 0.19661456E+00 0.21701407E+03</pdfrwt>
<totfact> 0.29862343E+04</totfact>
</mgrwt>
</event>
<event>
 4    1  0.4441180E+000  0.3006371E+03  0.7546771E-02  0.1084923E+00
         21   -1    0    0  501  502  0.00000000000E+00  0.00000000000E+00  0.27637208742E+03  0.27637208742E+03  0.00000000000E+00 0.  1.
         21   -1    0    0  502  503 -0.00000000000E+00 -0.00000000000E+00 -0.88774901710E+03  0.88774901710E+03  0.00000000000E+00 0. -1.
          6    1    1    2  501    0  0.19023336979E+03  0.15577208114E+03  0.15689990677E+03  0.33911687806E+03  0.17300000000E+03 0.  1.
         -6    1    1    2    0  503 -0.19023336979E+03 -0.15577208114E+03 -0.76827683646E+03  0.82500422646E+03  0.17300000000E+03 0. -1.
<mgrwt>
<rscale>  2 0.30063712E+03</rscale>
<asrwt>0</asrwt>
<pdfrwt beam="1">  1       21 0.42518782E-01 0.30063712E+03</pdfrwt>
<pdfrwt beam="2">  1       21 0.13657677E+00 0.30063712E+03</pdfrwt>
<totfact> 0.18688502E+03</totfact>
</mgrwt>
</event>
<event>
 4    1  0.4441180E+000  0.1858949E+03  0.7546771E-02  0.1162217E+00
         21   -1    0    0  501  502  0.00000000000E+00  0.00000000000E+00  0.15414906988E+04  0.15414906988E+04  0.00000000000E+00 0.  1.
         21   -1    0    0  502  503 -0.00000000000E+00 -0.00000000000E+00 -0.23042122449E+02  0.23042122449E+02  0.00000000000E+00 0. -1.
          6    1    1    2  501    0  0.58541960173E+02 -0.34651864083E+02  0.63046478847E+03  0.65729959858E+03  0.17300000000E+03 0.  1.
         -6    1    1    2    0  503 -0.58541960173E+02  0.34651864083E+02  0.88798378789E+03  0.90723322268E+03  0.17300000000E+03 0. -1.
<mgrwt>
<rscale>  2 0.18589490E+03</rscale>
<asrwt>0</asrwt>
<pdfrwt beam="1">  1       21 0.23715233E+00 0.18589490E+03</pdfrwt>
<pdfrwt beam="2">  1       21 0.35449431E-02 0.18589490E+03</pdfrwt>
<totfact> 0.38188719E+04</totfact>
</mgrwt>
</event>
<event>
 4    1  0.4441180E+000  0.2848356E+03  0.7546771E-02  0.1093077E+00
         21   -1    0    0  503  502  0.00000000000E+00  0.00000000000E+00  0.42076180616E+03  0.42076180616E+03  0.00000000000E+00 0.  1.
         21   -1    0    0  501  503 -0.00000000000E+00 -0.00000000000E+00 -0.36523733220E+03  0.36523733220E+03  0.00000000000E+00 0. -1.
          6    1    1    2  501    0  0.22567165146E+03 -0.16571509751E+02 -0.24225712125E+03  0.37392488819E+03  0.17300000000E+03 0. -1.
         -6    1    1    2    0  502 -0.22567165146E+03  0.16571509751E+02  0.29778159521E+03  0.41207425017E+03  0.17300000000E+03 0.  1.
<mgrwt>
<rscale>  2 0.28483558E+03</rscale>
<asrwt>0</asrwt>
<pdfrwt beam="1">  1       21 0.64732586E-01 0.28483558E+03</pdfrwt>
<pdfrwt beam="2">  1       21 0.56190359E-01 0.28483558E+03</pdfrwt>
<totfact> 0.61853474E+03</totfact>
</mgrwt>
</event>
<event>
 4    1  0.4441180E+000  0.1944734E+03  0.7546771E-02  0.1154487E+00
         21   -1    0    0  501  502  0.00000000000E+00  0.00000000000E+00  0.10948667466E+03  0.10948667466E+03  0.00000000000E+00 0. -1.
         21   -1    0    0  502  503 -0.00000000000E+00 -0.00000000000E+00 -0.63144518144E+03  0.63144518144E+03  0.00000000000E+00 0.  1.
          6    1    1    2  501    0 -0.71611742988E+02  0.52560962387E+02 -0.11648654012E+02  0.19482193830E+03  0.17300000000E+03 0. -1.
         -6    1    1    2    0  503  0.71611742988E+02 -0.52560962387E+02 -0.51030985277E+03  0.54610991781E+03  0.17300000000E+03 0.  1.
<mgrwt>
<rscale>  2 0.19447338E+03</rscale>
<asrwt>0</asrwt>
<pdfrwt beam="1">  1       21 0.16844104E-01 0.19447338E+03</pdfrwt>
<pdfrwt beam="2">  1       21 0.97145411E-01 0.19447338E+03</pdfrwt>
<totfact> 0.27864067E+04</totfact>
</mgrwt>
</event>
<event>
 4    1  0.4441180E+000  0.3600700E+03  0.7546771E-02  0.1058556E+00
         21   -1    0    0  503  502  0.00000000000E+00  0.00000000000E+00  0.13618127296E+03  0.13618127296E+03  0.00000000000E+00 0.  1.
         21   -1    0    0  501  503 -0.00000000000E+00 -0.00000000000E+00 -0.21265033358E+04  0.21265033358E+04  0.00000000000E+00 0. -1.
          6    1    1    2  501    0 -0.16767660432E+03  0.26759285821E+03 -0.18359368893E+04  0.18709127833E+04  0.17300000000E+03 0. -1.
         -6    1    1    2    0  502  0.16767660432E+03 -0.26759285821E+03 -0.15438517359E+03  0.39177182546E+03  0.17300000000E+03 0.  1.
<mgrwt>
<rscale>  2 0.36006997E+03</rscale>
<asrwt>0</asrwt>
<pdfrwt beam="1">  1       21 0.20950968E-01 0.36006997E+03</pdfrwt>
<pdfrwt beam="2">  1       21 0.32715432E+00 0.36006997E+03</pdfrwt>
<totfact> 0.42099246E+02</totfact>
</mgrwt>
</event>
<event>
 4    1  0.4441180E+000  0.1745884E+03  0.7546771E-02  0.1173146E+00
         21   -1    0    0  503  502  0.00000000000E+00  0.00000000000E+00  0.12055506041E+03  0.12055506041E+03  0.00000000000E+00 0. -1.
         21   -1    0    0  501  503 -0.00000000000E+00 -0.00000000000E+00 -0.44048105266E+03  0.44048105266E+03  0.00000000000E+00 0. -1.
          6    1    1    2  501    0  0.23493780713E+02  0.38029981226E+00 -0.34305168356E+03  0.38492279740E+03  0.17300000000E+03 0. -1.
         -6    1    1    2    0  502 -0.23493780713E+02 -0.38029981226E+00  0.23125691315E+02  0.17611331568E+03  0.17300000000E+03 0. -1.
<mgrwt>
<rscale>  2 0.17458838E+03</rscale>
<asrwt>0</asrwt>
<pdfrwt beam="1">  1       21 0.18546932E-01 0.17458838E+03</pdfrwt>
<pdfrwt beam="2">  1       21 0.67766316E-01 0.17458838E+03</pdfrwt>
<totfact> 0.53309519E+04</totfact>
</mgrwt>
</event>
<event>
 4    1  0.4441180E+000  0.1848976E+03  0.7546771E-02  0.1163146E+00
         21   -1    0    0  503  502  0.00000000000E+00  0.00000000000E+00  0.63295868356E+02  0.63295868356E+02  0.00000000000E+00 0. -1.
         21   -1    0    0  501  503 -0.00000000000E+00 -0.00000000000E+00 -0.55022649956E+03  0.55022649956E+03  0.00000000000E+00 0. -1.
          6    1    1    2  501    0  0.27729638137E+02 -0.59069431514E+02 -0.28504770102E+03  0.33976362729E+03  0.17300000000E+03 0. -1.
         -6    1    1    2    0  502 -0.27729638137E+02  0.59069431514E+02 -0.20188293018E+03  0.27375874063E+03  0.17300000000E+03 0. -1.
<mgrwt>
<rscale>  2 0.18489762E+03</rscale>
<asrwt>0</asrwt>
<pdfrwt beam="1">  1       21 0.97378260E-02 0.18489762E+03</pdfrwt>
<pdfrwt beam="2">  1       21 0.84650230E-01 0.18489762E+03</pdfrwt>
<totfact> 0.10317877E+05</totfact>
</mgrwt>
</event>
<event>
 4    1  0.4441180E+000  0.2373656E+03  0.7546771E-02  0.1121560E+00
         21   -1    0    0  503  502  0.00000000000E+00  0.00000000000E+00  0.20381918134E+03  0.20381918134E+03  0.00000000000E+00 0. -1.
         21   -1    0    0  501  503 -0.00000000000E+00 -0.00000000000E+00 -0.11576902187E+04  0.11576902187E+04  0.00000000000E+00 0.  1.
          6    1    1    2  501    0  0.27424435776E+01  0.16249887656E+03 -0.10708798476E+04  0.10968710288E+04  0.17300000000E+03 0.  1.
         -6    1    1    2    0  502 -0.27424435776E+01 -0.16249887656E+03  0.11700881019E+03  0.26463837126E+03  0.17300000000E+03 0. -1.
<mgrwt>
<rscale>  2 0.23736555E+03</rscale>
<asrwt>0</asrwt>
<pdfrwt beam="1">  1       21 0.31356797E-01 0.23736555E+03</pdfrwt>
<pdfrwt beam="2">  1       21 0.17810619E+00 0.23736555E+03</pdfrwt>
<totfact> 0.17571785E+03</totfact>
</mgrwt>
</event>
<event>
 4    1  0.4441180E+000  0.1948474E+03  0.7546771E-02  0.1154161E+00
         21   -1    0    0  503  502  0.00000000000E+00  0.00000000000E+00  0.93522801228E+02  0.93522801228E+02  0.00000000000E+00 0. -1.
         21   -1    0    0  501  503 -0.00000000000E+00 -0.00000000000E+00 -0.48645969227E+03  0.48645969227E+03  0.00000000000E+00 0. -1.
          6    1    1    2  501    0  0.37174651054E+02 -0.81575420166E+02 -0.31444284393E+03  0.36991864776E+03  0.17300000000E+03 0. -1.
         -6    1    1    2    0  502 -0.37174651054E+02  0.81575420166E+02 -0.78494047106E+02  0.21006384574E+03  0.17300000000E+03 0. -1.
<mgrwt>
<rscale>  2 0.19484739E+03</rscale>
<asrwt>0</asrwt>
<pdfrwt beam="1">  1       21 0.14388123E-01 0.19484739E+03</pdfrwt>
<pdfrwt beam="2">  1       21 0.74839953E-01 0.19484739E+03</pdfrwt>
<totfact> 0.67531520E+04</totfact>
</mgrwt>
</event>
<event>
 4    1  0.4441180E+000  0.2710033E+03  0.7546771E-02  0.1100707E+00
         21   -1    0    0  503  502  0.00000000000E+00  0.00000000000E+00  0.11302825027E+03  0.11302825027E+03  0.00000000000E+00 0. -1.
         21   -1    0    0  501  503 -0.00000000000E+00 -0.00000000000E+00 -0.20467620305E+04  0.20467620305E+04  0.00000000000E+00 0.  1.
          6    1    1    2  501    0  0.13520760797E+03 -0.15884798991E+03 -0.18590300882E+04  0.18786792302E+04  0.17300000000E+03 0.  1.
         -6    1    1    2    0  502 -0.13520760797E+03  0.15884798991E+03 -0.74703692025E+02  0.28111105057E+03  0.17300000000E+03 0. -1.
<mgrwt>
<rscale>  2 0.27100329E+03</rscale>
<asrwt>0</asrwt>
<pdfrwt beam="1">  1       21 0.17388962E-01 0.27100329E+03</pdfrwt>
<pdfrwt beam="2">  1       21 0.31488646E+00 0.27100329E+03</pdfrwt>
<totfact> 0.76376765E+02</totfact>
</mgrwt>
</event>
<event>
 4    1  0.4441180E+000  0.1737503E+03  0.7546771E-02  0.1173992E+00
         21   -1    0    0  503  502  0.00000000000E+00  0.00000000000E+00  0.44655052123E+03  0.44655052123E+03  0.00000000000E+00 0.  1.
         21   -1    0    0  501  503 -0.00000000000E+00 -0.00000000000E+00 -0.69456595878E+02  0.69456595878E+02  0.00000000000E+00 0.  1.
          6    1    1    2  501    0  0.39385640346E+01  0.15641054755E+02  0.14642447839E+03  0.22722077976E+03  0.17300000000E+03 0. -1.
         -6    1    1    2    0  502 -0.39385640346E+01 -0.15641054755E+02  0.23066944696E+03  0.28878633735E+03  0.17300000000E+03 0. -1.
<mgrwt>
<rscale>  2 0.17375027E+03</rscale>
<asrwt>0</asrwt>
<pdfrwt beam="1">  1       21 0.68700078E-01 0.17375027E+03</pdfrwt>
<pdfrwt beam="2">  1       21 0.10685630E-01 0.17375027E+03</pdfrwt>
<totfact> 0.14024856E+05</totfact>
</mgrwt>
</event>
<event>
 4    1  0.4441180E+000  0.2020979E+03  0.7546771E-02  0.1147981E+00
         21   -1    0    0  501  502  0.00000000000E+00  0.00000000000E+00  0.14002638483E+03  0.14002638483E+03  0.00000000000E+00 0. -1.
         21   -1    0    0  502  503 -0.00000000000E+00 -0.00000000000E+00 -0.57233344461E+03  0.57233344461E+03  0.00000000000E+00 0. -1.
          6    1    1    2  501    0  0.92180647332E+02 -0.49165738740E+02  0.33263718577E+02  0.20481703196E+03  0.17300000000E+03 0. -1.
         -6    1    1    2    0  503 -0.92180647332E+02  0.49165738740E+02 -0.46557077836E+03  0.50754279747E+03  0.17300000000E+03 0. -1.
<mgrwt>
<rscale>  2 0.20209785E+03</rscale>
<asrwt>0</asrwt>
<pdfrwt beam="1">  1       21 0.21542521E-01 0.20209785E+03</pdfrwt>
<pdfrwt beam="2">  1       21 0.88051299E-01 0.20209785E+03</pdfrwt>
<totfact> 0.22066074E+04</totfact>
</mgrwt>
</event>
<event>
 4    1  0.4441180E+000  0.2207699E+03  0.7546771E-02  0.1133310E+00
         21   -1    0    0  503  502  0.00000000000E+00  0.00000000000E+00  0.57988524892E+03  0.57988524892E+03  0.00000000000E+00 0.  1.
         21   -1    0    0  501  503 -0.00000000000E+00 -0.00000000000E+00 -0.11064668617E+03  0.11064668617E+03  0.00000000000E+00 0.  1.
          6    1    1    2  501    0  0.12705522906E+03  0.51646210728E+02  0.65342173411E+02  0.23023675193E+03  0.17300000000E+03 0.  1.
         -6    1    1    2    0  502 -0.12705522906E+03 -0.51646210728E+02  0.40389638934E+03  0.46029518316E+03  0.17300000000E+03 0.  1.
<mgrwt>
<rscale>  2 0.22076993E+03</rscale>
<asrwt>0</asrwt>
<pdfrwt beam="1">  1       21 0.89213114E-01 0.22076993E+03</pdfrwt>
<pdfrwt beam="2">  1       21 0.17022567E-01 0.22076993E+03</pdfrwt>
<totfact> 0.32865386E+04</totfact>
</mgrwt>
</event>
<event>
 4    1  0.4441180E+000  0.2162117E+03  0.7546771E-02  0.1136739E+00
         21   -1    0    0  503  502  0.00000000000E+00  0.00000000000E+00  0.32727351071E+03  0.32727351071E+03  0.00000000000E+00 0. -1.
         21   -1    0    0  501  503 -0.00000000000E+00 -0.00000000000E+00 -0.68068503111E+03  0.68068503111E+03  0.00000000000E+00 0. -1.
          6    1    1    2  501    0  0.10847990038E+03  0.71067513141E+02 -0.62469593047E+03  0.66105407174E+03  0.17300000000E+03 0. -1.
         -6    1    1    2    0  502 -0.10847990038E+03 -0.71067513141E+02  0.27128441008E+03  0.34690447008E+03  0.17300000000E+03 0. -1.
<mgrwt>
<rscale>  2 0.21621166E+03</rscale>
<asrwt>0</asrwt>
<pdfrwt beam="1">  1       21 0.50349771E-01 0.21621166E+03</pdfrwt>
<pdfrwt beam="2">  1       21 0.10472077E+00 0.21621166E+03</pdfrwt>
<totfact> 0.27067708E+03</totfact>
</mgrwt>
</event>
<event>
 4    1  0.4441180E+000  0.2642191E+03  0.7546771E-02  0.1104634E+00
         21   -1    0    0  501  502  0.00000000000E+00  0.00000000000E+00  0.45429215554E+02  0.45429215554E+02  0.00000000000E+00 0. -1.
         21   -1    0    0  502  503 -0.00000000000E+00 -0.00000000000E+00 -0.15407904794E+04  0.15407904794E+04  0.00000000000E+00 0.  1.
          6    1    1    2  501    0 -0.36469278993E+02  0.19634846224E+03 -0.78847367788E+03  0.83156627376E+03  0.17300000000E+03 0.  1.
         -6    1    1    2    0  503  0.36469278993E+02 -0.19634846224E+03 -0.70688758594E+03  0.75465342117E+03  0.17300000000E+03 0. -1.
<mgrwt>
<rscale>  2 0.26421909E+03</rscale>
<asrwt>0</asrwt>
<pdfrwt beam="1">  1       21 0.69891111E-02 0.26421909E+03</pdfrwt>
<pdfrwt beam="2">  1       21 0.23704466E+00 0.26421909E+03</pdfrwt>
<totfact> 0.11374210E+04</totfact>
</mgrwt>
</event>
<event>
 4    1  0.4441180E+000  0.1936459E+03  0.7546771E-02  0.1155213E+00
         21   -1    0    0  501  502  0.00000000000E+00  0.00000000000E+00  0.10269779903E+04  0.10269779903E+04  0.00000000000E+00 0.  1.
         21   -1    0    0  502  503 -0.00000000000E+00 -0.00000000000E+00 -0.50541608274E+02  0.50541608274E+02  0.00000000000E+00 0. -1.
          6    1    1    2  501    0 -0.74190667114E+02  0.45447539342E+02  0.77205427069E+03  0.79596892578E+03  0.17300000000E+03 0. -1.
         -6    1    1    2    0  503  0.74190667114E+02 -0.45447539342E+02  0.20438211135E+03  0.28155067281E+03  0.17300000000E+03 0. -1.
<mgrwt>
<rscale>  2 0.19364590E+03</rscale>
<asrwt>0</asrwt>
<pdfrwt beam="1">  1       21 0.15799660E+00 0.19364590E+03</pdfrwt>
<pdfrwt beam="2">  1       21 0.77756328E-02 0.19364590E+03</pdfrwt>
<totfact> 0.32811651E+04</totfact>
</mgrwt>
</event>
<event>
 4    1  0.4441180E+000  0.1749860E+03  0.7546771E-02  0.1172746E+00
         21   -1    0    0  503  502  0.00000000000E+00  0.00000000000E+00  0.32036352722E+02  0.32036352722E+02  0.00000000000E+00 0. -1.
         21   -1    0    0  501  503 -0.00000000000E+00 -0.00000000000E+00 -0.25706934123E+04  0.25706934123E+04  0.00000000000E+00 0. -1.
          6    1    1    2  501    0  0.12738279184E+02 -0.22996148444E+02 -0.23007756335E+04  0.23074203350E+04  0.17300000000E+03 0. -1.
         -6    1    1    2    0  502 -0.12738279184E+02  0.22996148444E+02 -0.23788142612E+03  0.29530943008E+03  0.17300000000E+03 0. -1.
<mgrwt>
<rscale>  2 0.17498596E+03</rscale>
<asrwt>0</asrwt>
<pdfrwt beam="1">  1       21 0.49286705E-02 0.17498596E+03</pdfrwt>
<pdfrwt beam="2">  1       21 0.39549123E+00 0.17498596E+03</pdfrwt>
<totfact> 0.26302663E+03</totfact>
</mgrwt>
</event>
<event>
 4    1  0.4441180E+000  0.2105253E+03  0.7546771E-02  0.1141151E+00
         21   -1    0    0  501  502  0.00000000000E+00  0.00000000000E+00  0.65058871817E+03  0.65058871817E+03  0.00000000000E+00 0. -1.
         21   -1    0    0  502  503 -0.00000000000E+00 -0.00000000000E+00 -0.81203160477E+02  0.81203160477E+02  0.00000000000E+00 0. -1.
          6    1    1    2  501    0 -0.10273237254E+03 -0.61951344717E+02  0.13784889559E+03  0.25164106878E+03  0.17300000000E+03 0. -1.
         -6    1    1    2    0  503  0.10273237254E+03  0.61951344717E+02  0.43153666211E+03  0.48015080987E+03  0.17300000000E+03 0. -1.
<mgrwt>
<rscale>  2 0.21052532E+03</rscale>
<asrwt>0</asrwt>
<pdfrwt beam="1">  1       21 0.10009057E+00 0.21052532E+03</pdfrwt>
<pdfrwt beam="2">  1       21 0.12492794E-01 0.21052532E+03</pdfrwt>
<totfact> 0.44313325E+04</totfact>
</mgrwt>
</event>
<event>
 4    1  0.4441180E+000  0.2502008E+03  0.7546771E-02  0.1113178E+00
         21   -1    0    0  503  502  0.00000000000E+00  0.00000000000E+00  0.10937149777E+03  0.10937149777E+03  0.00000000000E+00 0. -1.
         21   -1    0    0  501  503 -0.00000000000E+00 -0.00000000000E+00 -0.10975209998E+04  0.10975209998E+04  0.00000000000E+00 0.  1.
          6    1    1    2  501    0 -0.14275685240E+03 -0.11086890581E+03 -0.91149765816E+03  0.94521342247E+03  0.17300000000E+03 0.  1.
         -6    1    1    2    0  502  0.14275685240E+03  0.11086890581E+03 -0.76651843866E+02  0.26167907511E+03  0.17300000000E+03 0.  1.
<mgrwt>
<rscale>  2 0.25020079E+03</rscale>
<asrwt>0</asrwt>
<pdfrwt beam="1">  1       21 0.16826384E-01 0.25020079E+03</pdfrwt>
<pdfrwt beam="2">  1       21 0.16884938E+00 0.25020079E+03</pdfrwt>
<totfact> 0.66191121E+03</totfact>
</mgrwt>
</event>
<event>
 4    1  0.4441180E+000  0.1872306E+03  0.7546771E-02  0.1160983E+00
         21   -1    0    0  501  502  0.00000000000E+00  0.00000000000E+00  0.15274967160E+03  0.15274967160E+03  0.00000000000E+00 0. -1.
         21   -1    0    0  502  503 -0.00000000000E+00 -0.00000000000E+00 -0.23907802727E+03  0.23907802727E+03  0.00000000000E+00 0. -1.
          6    1    1    2  501    0  0.17468280221E+02  0.69434475887E+02 -0.39406669580E+01  0.18727203772E+03  0.17300000000E+03 0. -1.
         -6    1    1    2    0  503 -0.17468280221E+02 -0.69434475887E+02 -0.82387688716E+02  0.20455566115E+03  0.17300000000E+03 0. -1.
<mgrwt>
<rscale>  2 0.18723057E+03</rscale>
<asrwt>0</asrwt>
<pdfrwt beam="1">  1       21 0.23499949E-01 0.18723057E+03</pdfrwt>
<pdfrwt beam="2">  1       21 0.36781235E-01 0.18723057E+03</pdfrwt>
<totfact> 0.12170356E+05</totfact>
</mgrwt>
</event>
<event>
 4    1  0.4441180E+000  0.2764347E+03  0.7546771E-02  0.1097652E+00
         21   -1    0    0  501  502  0.00000000000E+00  0.00000000000E+00  0.21682683183E+03  0.21682683183E+03  0.00000000000E+00 0. -1.
         21   -1    0    0  502  503 -0.00000000000E+00 -0.00000000000E+00 -0.36351433132E+03  0.36351433132E+03  0.00000000000E+00 0. -1.
          6    1    1    2  501    0 -0.52565181189E+02 -0.20910298954E+03 -0.22672878883E+02  0.27736297147E+03  0.17300000000E+03 0. -1.
         -6    1    1    2    0  503  0.52565181189E+02  0.20910298954E+03 -0.12401462061E+03  0.30297819168E+03  0.17300000000E+03 0. -1.
<mgrwt>
<rscale>  2 0.27643473E+03</rscale>
<asrwt>0</asrwt>
<pdfrwt beam="1">  1       21 0.33357974E-01 0.27643473E+03</pdfrwt>
<pdfrwt beam="2">  1       21 0.55925282E-01 0.27643473E+03</pdfrwt>
<totfact> 0.25001742E+04</totfact>
</mgrwt>
</event>
<event>
 4    1  0.4441180E+000  0.2713562E+03  0.7546771E-02  0.1100506E+00
         21   -1    0    0  503  502  0.00000000000E+00  0.00000000000E+00  0.15291915490E+03  0.15291915490E+03  0.00000000000E+00 0.  1.
         21   -1    0    0  501  503 -0.00000000000E+00 -0.00000000000E+00 -0.50252185278E+03  0.50252185278E+03  0.00000000000E+00 0.  1.
          6    1    1    2  501    0 -0.11414767292E+03 -0.17514416991E+03 -0.10781004566E+03  0.29198831729E+03  0.17300000000E+03 0.  1.
         -6    1    1    2    0  502  0.11414767292E+03  0.17514416991E+03 -0.24179265222E+03  0.36345269039E+03  0.17300000000E+03 0.  1.
<mgrwt>
<rscale>  2 0.27135617E+03</rscale>
<asrwt>0</asrwt>
<pdfrwt beam="1">  1       21 0.23526024E-01 0.27135617E+03</pdfrwt>
<pdfrwt beam="2">  1       21 0.77311054E-01 0.27135617E+03</pdfrwt>
<totfact> 0.24269110E+04</totfact>
</mgrwt>
</event>
<event>
 4    1  0.4441180E+000  0.2266843E+03  0.7546771E-02  0.1128995E+00
         21   -1    0    0  503  502  0.00000000000E+00  0.00000000000E+00  0.33577663052E+03  0.33577663052E+03  0.00000000000E+00 0. -1.
         21   -1    0    0  501  503 -0.00000000000E+00 -0.00000000000E+00 -0.28539196910E+03  0.28539196910E+03  0.00000000000E+00 0.  1.
          6    1    1    2  501    0  0.14645170517E+03  0.29479918173E+01 -0.18631770363E+03  0.29342815014E+03  0.17300000000E+03 0.  1.
         -6    1    1    2    0  502 -0.14645170517E+03 -0.29479918173E+01  0.23670236505E+03  0.32774044948E+03  0.17300000000E+03 0. -1.
<mgrwt>
<rscale>  2 0.22668435E+03</rscale>
<asrwt>0</asrwt>
<pdfrwt beam="1">  1       21 0.51657943E-01 0.22668435E+03</pdfrwt>
<pdfrwt beam="2">  1       21 0.43906457E-01 0.22668435E+03</pdfrwt>
<totfact> 0.17385504E+04</totfact>
</mgrwt>
</event>
<event>
 4    1  0.4441180E+000  0.3117638E+03  0.7546771E-02  0.1079504E+00
         21   -1    0    0  501  502  0.00000000000E+00  0.00000000000E+00  0.32193581728E+03  0.32193581728E+03  0.00000000000E+00 0. -1.
         21   -1    0    0  502  503 -0.00000000000E+00 -0.00000000000E+00 -0.31919926026E+03  0.31919926026E+03  0.00000000000E+00 0. -1.
          6    1    1    2  501    0 -0.11755478379E+02 -0.25909359509E+03  0.75967834969E+02  0.32088595207E+03  0.17300000000E+03 0. -1.
         -6    1    1    2    0  503  0.11755478379E+02  0.25909359509E+03 -0.73231277952E+02  0.32024912546E+03  0.17300000000E+03 0. -1.
<mgrwt>
<rscale>  2 0.31176382E+03</rscale>
<asrwt>0</asrwt>
<pdfrwt beam="1">  1       21 0.49528588E-01 0.31176382E+03</pdfrwt>
<pdfrwt beam="2">  1       21 0.49107578E-01 0.31176382E+03</pdfrwt>
<totfact> 0.14462714E+04</totfact>
</mgrwt>
</event>
<event>
 4    1  0.4441180E+000  0.2124166E+03  0.7546771E-02  0.1139666E+00
         21   -1    0    0  503  502  0.00000000000E+00  0.00000000000E+00  0.23263289950E+03  0.23263289950E+03  0.00000000000E+00 0.  1.
         21   -1    0    0  501  503 -0.00000000000E+00 -0.00000000000E+00 -0.23555617505E+03  0.23555617505E+03  0.00000000000E+00 0.  1.
          6    1    1    2  501    0  0.10757651125E+03  0.60159005788E+02 -0.99836845690E+02  0.23470877169E+03  0.17300000000E+03 0.  1.
         -6    1    1    2    0  502 -0.10757651125E+03 -0.60159005788E+02  0.96913570135E+02  0.23348030286E+03  0.17300000000E+03 0.  1.
<mgrwt>
<rscale>  2 0.21241660E+03</rscale>
<asrwt>0</asrwt>
<pdfrwt beam="1">  1       21 0.35789677E-01 0.21241660E+03</pdfrwt>
<pdfrwt beam="2">  1       21 0.36239412E-01 0.21241660E+03</pdfrwt>
<totfact> 0.54768636E+04</totfact>
</mgrwt>
</event>
<event>
 4    1  0.4441180E+000  0.2534846E+03  0.7546771E-02  0.1111122E+00
         21   -1    0    0  503  502  0.00000000000E+00  0.00000000000E+00  0.12925591510E+03  0.12925591510E+03  0.00000000000E+00 0. -1.
         21   -1    0    0  501  503 -0.00000000000E+00 -0.00000000000E+00 -0.49912441729E+03  0.49912441729E+03  0.00000000000E+00 0.  1.
          6    1    1    2  501    0  0.16010521340E+03 -0.93229720820E+02 -0.20489235707E+03  0.32593762929E+03  0.17300000000E+03 0. -1.
         -6    1    1    2    0  502 -0.16010521340E+03  0.93229720820E+02 -0.16497614511E+03  0.30244270310E+03  0.17300000000E+03 0. -1.
<mgrwt>
<rscale>  2 0.25348464E+03</rscale>
<asrwt>0</asrwt>
<pdfrwt beam="1">  1       21 0.19885525E-01 0.25348464E+03</pdfrwt>
<pdfrwt beam="2">  1       21 0.76788373E-01 0.25348464E+03</pdfrwt>
<totfact> 0.34156193E+04</totfact>
</mgrwt>
</event>
<event>
 4    1  0.4441180E+000  0.2133508E+03  0.7546771E-02  0.1138940E+00
         21   -1    0    0  501  502  0.00000000000E+00  0.00000000000E+00  0.46947985503E+03  0.46947985503E+03  0.00000000000E+00 0. -1.
         21   -1    0    0  502  503 -0.00000000000E+00 -0.00000000000E+00 -0.10837098445E+03  0.10837098445E+03  0.00000000000E+00 0. -1.
          6    1    1    2  501    0  0.56908398499E+02  0.11113497970E+03  0.27432804914E+03  0.34752615452E+03  0.17300000000E+03 0. -1.
         -6    1    1    2    0  503 -0.56908398499E+02 -0.11113497970E+03  0.86780821443E+02  0.23032468496E+03  0.17300000000E+03 0. -1.
<mgrwt>
<rscale>  2 0.21335077E+03</rscale>
<asrwt>0</asrwt>
<pdfrwt beam="1">  1       21 0.72227669E-01 0.21335077E+03</pdfrwt>
<pdfrwt beam="2">  1       21 0.16672459E-01 0.21335077E+03</pdfrwt>
<totfact> 0.55352266E+04</totfact>
</mgrwt>
</event>
<event>
 4    1  0.4441180E+000  0.2030493E+03  0.7546771E-02  0.1147192E+00
         21   -1    0    0  501  502  0.00000000000E+00  0.00000000000E+00  0.20848382481E+03  0.20848382481E+03  0.00000000000E+00 0. -1.
         21   -1    0    0  502  503 -0.00000000000E+00 -0.00000000000E+00 -0.36907824983E+03  0.36907824983E+03  0.00000000000E+00 0. -1.
          6    1    1    2  501    0  0.10612925576E+03 -0.60486387264E+01  0.11645329348E+03  0.23407343831E+03  0.17300000000E+03 0. -1.
         -6    1    1    2    0  503 -0.10612925576E+03  0.60486387264E+01 -0.27704771850E+03  0.34348863633E+03  0.17300000000E+03 0. -1.
<mgrwt>
<rscale>  2 0.20304927E+03</rscale>
<asrwt>0</asrwt>
<pdfrwt beam="1">  1       21 0.32074435E-01 0.20304927E+03</pdfrwt>
<pdfrwt beam="2">  1       21 0.56781269E-01 0.20304927E+03</pdfrwt>
<totfact> 0.27097018E+04</totfact>
</mgrwt>
</event>
<event>
 4    1  0.4441180E+000  0.2209822E+03  0.7546771E-02  0.1133153E+00
         21   -1    0    0  503  502  0.00000000000E+00  0.00000000000E+00  0.18113318955E+03  0.18113318955E+03  0.00000000000E+00 0.  1.
         21   -1    0    0  501  503 -0.00000000000E+00 -0.00000000000E+00 -0.33669414874E+03  0.33669414874E+03  0.00000000000E+00 0. -1.
          6    1    1    2  501    0 -0.12210632614E+03  0.63199497775E+02 -0.19336142580E+03  0.29363544130E+03  0.17300000000E+03 0. -1.
         -6    1    1    2    0  502  0.12210632614E+03 -0.63199497775E+02  0.37800466607E+02  0.22419189699E+03  0.17300000000E+03 0.  1.
<mgrwt>
<rscale>  2 0.22098220E+03</rscale>
<asrwt>0</asrwt>
<pdfrwt beam="1">  1       21 0.27866645E-01 0.22098220E+03</pdfrwt>
<pdfrwt beam="2">  1       21 0.51799099E-01 0.22098220E+03</pdfrwt>
<totfact> 0.42915146E+04</totfact>
</mgrwt>
</event>
<event>
 4    1  0.4441180E+000  0.2162892E+03  0.7546771E-02  0.1136680E+00
         21   -1    0    0  501  502  0.00000000000E+00  0.00000000000E+00  0.53579687131E+03  0.53579687131E+03  0.00000000000E+00 0. -1.
         21   -1    0    0  502  503 -0.00000000000E+00 -0.00000000000E+00 -0.93720779556E+02  0.93720779556E+02  0.00000000000E+00 0. -1.
          6    1    1    2  501    0 -0.18146687696E+02 -0.12854077890E+03  0.30335264555E+03  0.37256390281E+03  0.17300000000E+03 0. -1.
         -6    1    1    2    0  503  0.18146687696E+02  0.12854077890E+03  0.13872344621E+03  0.25695374806E+03  0.17300000000E+03 0. -1.
<mgrwt>
<rscale>  2 0.21628924E+03</rscale>
<asrwt>0</asrwt>
<pdfrwt beam="1">  1       21 0.82430286E-01 0.21628924E+03</pdfrwt>
<pdfrwt beam="2">  1       21 0.14418582E-01 0.21628924E+03</pdfrwt>
<totfact> 0.53556860E+04</totfact>
</mgrwt>
</event>
<event>
 4    1  0.4441180E+000  0.2999964E+03  0.7546771E-02  0.1085242E+00
         21   -1    0    0  503  502  0.00000000000E+00  0.00000000000E+00  0.10370636647E+04  0.10370636647E+04  0.00000000000E+00 0. -1.
         21   -1    0    0  501  503 -0.00000000000E+00 -0.00000000000E+00 -0.11431091513E+03  0.11431091513E+03  0.00000000000E+00 0. -1.
          6    1    1    2  501    0 -0.79749382989E+02 -0.23175171153E+03  0.17886092713E+03  0.34926931033E+03  0.17300000000E+03 0. -1.
         -6    1    1    2    0  502  0.79749382989E+02  0.23175171153E+03  0.74389182242E+03  0.80210526949E+03  0.17300000000E+03 0. -1.
<mgrwt>
<rscale>  2 0.29999637E+03</rscale>
<asrwt>0</asrwt>
<pdfrwt beam="1">  1       21 0.15954825E+00 0.29999637E+03</pdfrwt>
<pdfrwt beam="2">  1       21 0.17586295E-01 0.29999637E+03</pdfrwt>
<totfact> 0.69227914E+03</totfact>
</mgrwt>
</event>
<event>
 4    1  0.4441180E+000  0.1910605E+03  0.7546771E-02  0.1157508E+00
         21   -1    0    0  503  502  0.00000000000E+00  0.00000000000E+00  0.37571750720E+02  0.37571750720E+02  0.00000000000E+00 0. -1.
         21   -1    0    0  501  503 -0.00000000000E+00 -0.00000000000E+00 -0.12923547764E+04  0.12923547764E+04  0.00000000000E+00 0. -1.
          6    1    1    2  501    0  0.65335438619E+02 -0.48025058807E+02 -0.95867815350E+03  0.97753154825E+03  0.17300000000E+03 0. -1.
         -6    1    1    2    0  502 -0.65335438619E+02  0.48025058807E+02 -0.29610487221E+03  0.35239497891E+03  0.17300000000E+03 0. -1.
<mgrwt>
<rscale>  2 0.19106053E+03</rscale>
<asrwt>0</asrwt>
<pdfrwt beam="1">  1       21 0.57802690E-02 0.19106053E+03</pdfrwt>
<pdfrwt beam="2">  1       21 0.19882382E+00 0.19106053E+03</pdfrwt>
<totfact> 0.28747650E+04</totfact>
</mgrwt>
</event>
<event>
 4    1  0.4441180E+000  0.2210830E+03  0.7546771E-02  0.1133078E+00
         21   -1    0    0  503  502  0.00000000000E+00  0.00000000000E+00  0.66815069917E+03  0.66815069917E+03  0.00000000000E+00 0.  1.
         21   -1    0    0  501  503 -0.00000000000E+00 -0.00000000000E+00 -0.10401175638E+03  0.10401175638E+03  0.00000000000E+00 0. -1.
          6    1    1    2  501    0 -0.91274066664E+02 -0.10304244282E+03  0.71777976789E+02  0.23244306447E+03  0.17300000000E+03 0. -1.
         -6    1    1    2    0  502  0.91274066664E+02  0.10304244282E+03  0.49236096600E+03  0.53971939108E+03  0.17300000000E+03 0.  1.
<mgrwt>
<rscale>  2 0.22108302E+03</rscale>
<asrwt>0</asrwt>
<pdfrwt beam="1">  1       21 0.10279241E+00 0.22108302E+03</pdfrwt>
<pdfrwt beam="2">  1       21 0.16001809E-01 0.22108302E+03</pdfrwt>
<totfact> 0.26368261E+04</totfact>
</mgrwt>
</event>
<event>
 4    1  0.4441180E+000  0.1945299E+03  0.7546771E-02  0.1154438E+00
         21   -1    0    0  501  502  0.00000000000E+00  0.00000000000E+00  0.37595532830E+02  0.37595532830E+02  0.00000000000E+00 0.  1.
         21   -1    0    0  502  503 -0.00000000000E+00 -0.00000000000E+00 -0.11032289640E+04  0.11032289640E+04  0.00000000000E+00 0.  1.
          6    1    1    2  501    0 -0.65352120307E+02  0.60348847824E+02 -0.36396088369E+03  0.41268560420E+03  0.17300000000E+03 0.  1.
         -6    1    1    2    0  503  0.65352120307E+02 -0.60348847824E+02 -0.70167254746E+03  0.72813889260E+03  0.17300000000E+03 0.  1.
<mgrwt>
<rscale>  2 0.19452990E+03</rscale>
<asrwt>0</asrwt>
<pdfrwt beam="1">  1       21 0.57839274E-02 0.19452990E+03</pdfrwt>
<pdfrwt beam="2">  1       21 0.16972756E+00 0.19452990E+03</pdfrwt>
<totfact> 0.44944640E+04</totfact>
</mgrwt>
</event>
<event>
 4    1  0.4441180E+000  0.2116776E+03  0.7546771E-02  0.1140244E+00
         21   -1    0    0  501  502  0.00000000000E+00  0.00000000000E+00  0.22318701097E+03  0.22318701097E+03  0.00000000000E+00 0. -1.
         21   -1    0    0  502  503 -0.00000000000E+00 -0.00000000000E+00 -0.20289130176E+03  0.20289130176E+03  0.00000000000E+00 0. -1.
          6    1    1    2  501    0  0.50081443297E+02  0.11122170978E+03  0.31973627489E+02  0.21407879985E+03  0.17300000000E+03 0. -1.
         -6    1    1    2    0  503 -0.50081443297E+02 -0.11122170978E+03 -0.11677918274E+02  0.21199951289E+03  0.17300000000E+03 0. -1.
<mgrwt>
<rscale>  2 0.21167763E+03</rscale>
<asrwt>0</asrwt>
<pdfrwt beam="1">  1       21 0.34336463E-01 0.21167763E+03</pdfrwt>
<pdfrwt beam="2">  1       21 0.31214046E-01 0.21167763E+03</pdfrwt>
<totfact> 0.79957503E+04</totfact>
</mgrwt>
</event>
<event>
 4    1  0.4441180E+000  0.1794894E+03  0.7546771E-02  0.1168298E+00
         21   -1    0    0  503  502  0.00000000000E+00  0.00000000000E+00  0.33668024589E+03  0.33668024589E+03  0.00000000000E+00 0.  1.
         21   -1    0    0  501  503 -0.00000000000E+00 -0.00000000000E+00 -0.13161885832E+03  0.13161885832E+03  0.00000000000E+00 0.  1.
          6    1    1    2  501    0 -0.47724313972E+02  0.31384283404E+01 -0.19808177242E+02  0.18057913435E+03  0.17300000000E+03 0.  1.
         -6    1    1    2    0  502  0.47724313972E+02 -0.31384283404E+01  0.22486956482E+03  0.28771996986E+03  0.17300000000E+03 0.  1.
<mgrwt>
<rscale>  2 0.17948944E+03</rscale>
<asrwt>0</asrwt>
<pdfrwt beam="1">  1       21 0.51796961E-01 0.17948944E+03</pdfrwt>
<pdfrwt beam="2">  1       21 0.20249055E-01 0.17948944E+03</pdfrwt>
<totfact> 0.80260375E+04</totfact>
</mgrwt>
</event>
<event>
 4    1  0.4441180E+000  0.2367250E+03  0.7546771E-02  0.1121994E+00
         21   -1    0    0  501  502  0.00000000000E+00  0.00000000000E+00  0.13629955527E+03  0.13629955527E+03  0.00000000000E+00 0. -1.
         21   -1    0    0  502  503 -0.00000000000E+00 -0.00000000000E+00 -0.41953749618E+03  0.41953749618E+03  0.00000000000E+00 0. -1.
          6    1    1    2  501    0 -0.13317387019E+03  0.91511995932E+02 -0.18092934746E+03  0.29794991840E+03  0.17300000000E+03 0. -1.
         -6    1    1    2    0  503  0.13317387019E+03 -0.91511995932E+02 -0.10230859346E+03  0.25788713305E+03  0.17300000000E+03 0. -1.
<mgrwt>
<rscale>  2 0.23672500E+03</rscale>
<asrwt>0</asrwt>
<pdfrwt beam="1">  1       21 0.20969162E-01 0.23672500E+03</pdfrwt>
<pdfrwt beam="2">  1       21 0.64544231E-01 0.23672500E+03</pdfrwt>
<totfact> 0.45792730E+04</totfact>
</mgrwt>
</event>
<event>
 4    1  0.4441180E+000  0.1855653E+03  0.7546771E-02  0.1162523E+00
         21   -1    0    0  501  502  0.00000000000E+00  0.00000000000E+00  0.11443193457E+03  0.11443193457E+03  0.00000000000E+00 0.  1.
         21   -1    0    0  502  503 -0.00000000000E+00 -0.00000000000E+00 -0.32157704621E+03  0.32157704621E+03  0.00000000000E+00 0.  1.
          6    1    1    2  501    0  0.88720737618E+01  0.66534068846E+02 -0.48315179951E+02  0.19175206029E+03  0.17300000000E+03 0.  1.
         -6    1    1    2    0  503 -0.88720737618E+01 -0.66534068846E+02 -0.15882993168E+03  0.24425692049E+03  0.17300000000E+03 0.  1.
<mgrwt>
<rscale>  2 0.18556534E+03</rscale>
<asrwt>0</asrwt>
<pdfrwt beam="1">  1       21 0.17604913E-01 0.18556534E+03</pdfrwt>
<pdfrwt beam="2">  1       21 0.49473392E-01 0.18556534E+03</pdfrwt>
<totfact> 0.11423395E+05</totfact>
</mgrwt>
</event>
<event>
 4    1  0.4441180E+000  0.2559824E+03  0.7546771E-02  0.1109581E+00
         21   -1    0    0  501  502  0.00000000000E+00  0.00000000000E+00  0.14509308415E+03  0.14509308415E+03  0.00000000000E+00 0. -1.
         21   -1    0    0  502  503 -0.00000000000E+00 -0.00000000000E+00 -0.49679395601E+03  0.49679395601E+03  0.00000000000E+00 0. -1.
          6    1    1    2  501    0 -0.18278945948E+03 -0.46754732258E+02 -0.79071070067E+02  0.26791645266E+03  0.17300000000E+03 0. -1.
         -6    1    1    2    0  503  0.18278945948E+03  0.46754732258E+02 -0.27262980180E+03  0.37397058750E+03  0.17300000000E+03 0. -1.
<mgrwt>
<rscale>  2 0.25598240E+03</rscale>
<asrwt>0</asrwt>
<pdfrwt beam="1">  1       21 0.22322013E-01 0.25598240E+03</pdfrwt>
<pdfrwt beam="2">  1       21 0.76429838E-01 0.25598240E+03</pdfrwt>
<totfact> 0.27716553E+04</totfact>
</mgrwt>
</event>
<event>
 4    1  0.4441180E+000  0.2207070E+03  0.7546771E-02  0.1133357E+00
         21   -1    0    0  503  502  0.00000000000E+00  0.00000000000E+00  0.77204358577E+02  0.77204358577E+02  0.00000000000E+00 0. -1.
         21   -1    0    0  501  503 -0.00000000000E+00 -0.00000000000E+00 -0.91546235537E+03  0.91546235537E+03  0.00000000000E+00 0.  1.
          6    1    1    2  501    0  0.30254091748E+02  0.13366855796E+03 -0.69582870149E+03  0.72999258577E+03  0.17300000000E+03 0. -1.
         -6    1    1    2    0  502 -0.30254091748E+02 -0.13366855796E+03 -0.14242929530E+03  0.26267412818E+03  0.17300000000E+03 0. -1.
<mgrwt>
<rscale>  2 0.22070703E+03</rscale>
<asrwt>0</asrwt>
<pdfrwt beam="1">  1       21 0.11877594E-01 0.22070703E+03</pdfrwt>
<pdfrwt beam="2">  1       21 0.14084036E+00 0.22070703E+03</pdfrwt>
<totfact> 0.20685516E+04</totfact>
</mgrwt>
</event>
<event>
 4    1  0.4441180E+000  0.2018232E+03  0.7546771E-02  0.1148210E+00
         21   -1    0    0  501  502  0.00000000000E+00  0.00000000000E+00  0.55777420923E+02  0.55777420923E+02  0.00000000000E+00 0.  1.
         21   -1    0    0  502  503 -0.00000000000E+00 -0.00000000000E+00 -0.94505234669E+03  0.94505234669E+03  0.00000000000E+00 0.  1.
          6    1    1    2  501    0  0.10393661225E+03  0.89335135613E+00 -0.20607569323E+03  0.28844377057E+03  0.17300000000E+03 0.  1.
         -6    1    1    2    0  503 -0.10393661225E+03 -0.89335135613E+00 -0.68319923254E+03  0.71238599704E+03  0.17300000000E+03 0.  1.
<mgrwt>
<rscale>  2 0.20182323E+03</rscale>
<asrwt>0</asrwt>
<pdfrwt beam="1">  1       21 0.85811414E-02 0.20182323E+03</pdfrwt>
<pdfrwt beam="2">  1       21 0.14539267E+00 0.20182323E+03</pdfrwt>
<totfact> 0.34252110E+04</totfact>
</mgrwt>
</event>
<event>
 4    1  0.4441180E+000  0.1911038E+03  0.7546771E-02  0.1157470E+00
         21   -1    0    0  501  502  0.00000000000E+00  0.00000000000E+00  0.31526566593E+03  0.31526566593E+03  0.00000000000E+00 0.  1.
         21   -1    0    0  502  503 -0.00000000000E+00 -0.00000000000E+00 -0.11612417036E+03  0.11612417036E+03  0.00000000000E+00 0.  1.
          6    1    1    2  501    0  0.78223845553E+02 -0.21741456922E+02  0.11022377740E+03  0.22061265165E+03  0.17300000000E+03 0.  1.
         -6    1    1    2    0  503 -0.78223845553E+02  0.21741456922E+02  0.88917718169E+02  0.21077718464E+03  0.17300000000E+03 0.  1.
<mgrwt>
<rscale>  2 0.19110380E+03</rscale>
<asrwt>0</asrwt>
<pdfrwt beam="1">  1       21 0.48502410E-01 0.19110380E+03</pdfrwt>
<pdfrwt beam="2">  1       21 0.17865257E-01 0.19110380E+03</pdfrwt>
<totfact> 0.11562984E+05</totfact>
</mgrwt>
</event>
<event>
 4    1  0.4441180E+000  0.2047038E+03  0.7546771E-02  0.1145830E+00
         21   -1    0    0  503  502  0.00000000000E+00  0.00000000000E+00  0.20423298827E+03  0.20423298827E+03  0.00000000000E+00 0. -1.
         21   -1    0    0  501  503 -0.00000000000E+00 -0.00000000000E+00 -0.36918564174E+03  0.36918564174E+03  0.00000000000E+00 0. -1.
          6    1    1    2  501    0  0.10349135642E+03 -0.35555426101E+02  0.10862093796E+03  0.23173725929E+03  0.17300000000E+03 0. -1.
         -6    1    1    2    0  502 -0.10349135642E+03  0.35555426101E+02 -0.27357359142E+03  0.34168137072E+03  0.17300000000E+03 0. -1.
<mgrwt>
<rscale>  2 0.20470381E+03</rscale>
<asrwt>0</asrwt>
<pdfrwt beam="1">  1       21 0.31420460E-01 0.20470381E+03</pdfrwt>
<pdfrwt beam="2">  1       21 0.56797791E-01 0.20470381E+03</pdfrwt>
<totfact> 0.28172728E+04</totfact>
</mgrwt>
</event>
<event>
 4    1  0.4441180E+000  0.1808751E+03  0.7546771E-02  0.1166959E+00
         21   -1    0    0  503  502  0.00000000000E+00  0.00000000000E+00  0.74494554749E+03  0.74494554749E+03  0.00000000000E+00 0.  1.
         21   -1    0    0  501  503 -0.00000000000E+00 -0.00000000000E+00 -0.12795839241E+03  0.12795839241E+03  0.00000000000E+00 0.  1.
          6    1    1    2  501    0  0.20008046658E+01  0.52752401927E+02 -0.45217394842E+02  0.18644149732E+03  0.17300000000E+03 0.  1.
         -6    1    1    2    0  502 -0.20008046658E+01 -0.52752401927E+02  0.66220454992E+03  0.68646244258E+03  0.17300000000E+03 0.  1.
<mgrwt>
<rscale>  2 0.18087515E+03</rscale>
<asrwt>0</asrwt>
<pdfrwt beam="1">  1       21 0.11460700E+00 0.18087515E+03</pdfrwt>
<pdfrwt beam="2">  1       21 0.19685907E-01 0.18087515E+03</pdfrwt>
<totfact> 0.14167768E+04</totfact>
</mgrwt>
</event>
<event>
 4    1  0.4441180E+000  0.2324226E+03  0.7546771E-02  0.1124946E+00
         21   -1    0    0  503  502  0.00000000000E+00  0.00000000000E+00  0.19275866079E+03  0.19275866079E+03  0.00000000000E+00 0. -1.
         21   -1    0    0  501  503 -0.00000000000E+00 -0.00000000000E+00 -0.35717345853E+03  0.35717345853E+03  0.00000000000E+00 0. -1.
          6    1    1    2  501    0  0.74888657493E+02  0.13595195182E+03 -0.20981434841E+03  0.31311707878E+03  0.17300000000E+03 0. -1.
         -6    1    1    2    0  502 -0.74888657493E+02 -0.13595195182E+03  0.45399550673E+02  0.23681504054E+03  0.17300000000E+03 0. -1.
<mgrwt>
<rscale>  2 0.23242256E+03</rscale>
<asrwt>0</asrwt>
<pdfrwt beam="1">  1       21 0.29655179E-01 0.23242256E+03</pdfrwt>
<pdfrwt beam="2">  1       21 0.54949763E-01 0.23242256E+03</pdfrwt>
<totfact> 0.33378605E+04</totfact>
</mgrwt>
</event>
<event>
 4    1  0.4441180E+000  0.2457170E+03  0.7546771E-02  0.1116042E+00
         21   -1    0    0  503  502  0.00000000000E+00  0.00000000000E+00  0.88511495512E+03  0.88511495512E+03  0.00000000000E+00 0.  1.
         21   -1    0    0  501  503 -0.00000000000E+00 -0.00000000000E+00 -0.77675622728E+02  0.77675622728E+02  0.00000000000E+00 0.  1.
          6    1    1    2  501    0  0.57426823052E+02  0.16477262279E+03  0.23570314700E+03  0.34048910516E+03  0.17300000000E+03 0.  1.
         -6    1    1    2    0  502 -0.57426823052E+02 -0.16477262279E+03  0.57173618539E+03  0.62230147269E+03  0.17300000000E+03 0.  1.
<mgrwt>
<rscale>  2 0.24571703E+03</rscale>
<asrwt>0</asrwt>
<pdfrwt beam="1">  1       21 0.13617152E+00 0.24571703E+03</pdfrwt>
<pdfrwt beam="2">  1       21 0.11950096E-01 0.24571703E+03</pdfrwt>
<totfact> 0.22018442E+04</totfact>
</mgrwt>
</event>
<event>
 4    1  0.4441180E+000  0.2018780E+03  0.7546771E-02  0.1148164E+00
         21   -1    0    0  501  502  0.00000000000E+00  0.00000000000E+00  0.63666003422E+02  0.63666003422E+02  0.00000000000E+00 0.  1.
         21   -1    0    0  502  503 -0.00000000000E+00 -0.00000000000E+00 -0.64413108035E+03  0.64413108035E+03  0.00000000000E+00 0.  1.
          6    1    1    2  501    0  0.56153040812E+02  0.87593097428E+02 -0.26235122753E+03  0.33103305167E+03  0.17300000000E+03 0.  1.
         -6    1    1    2    0  503 -0.56153040812E+02 -0.87593097428E+02 -0.31811384940E+03  0.37676403211E+03  0.17300000000E+03 0.  1.
<mgrwt>
<rscale>  2 0.20187797E+03</rscale>
<asrwt>0</asrwt>
<pdfrwt beam="1">  1       21 0.97947698E-02 0.20187797E+03</pdfrwt>
<pdfrwt beam="2">  1       21 0.99097089E-01 0.20187797E+03</pdfrwt>
<totfact> 0.70292562E+04</totfact>
</mgrwt>
</event>
<event>
 4    1  0.4441180E+000  0.2702288E+03  0.7546771E-02  0.1101149E+00
         21   -1    0    0  501  502  0.00000000000E+00  0.00000000000E+00  0.25545771028E+03  0.25545771028E+03  0.00000000000E+00 0. -1.
         21   -1    0    0  502  503 -0.00000000000E+00 -0.00000000000E+00 -0.34152619568E+03  0.34152619568E+03  0.00000000000E+00 0. -1.
          6    1    1    2  501    0  0.17692029367E+03 -0.10859931738E+03  0.77480419547E+02  0.28111708853E+03  0.17300000000E+03 0. -1.
         -6    1    1    2    0  503 -0.17692029367E+03  0.10859931738E+03 -0.16354890495E+03  0.31586681744E+03  0.17300000000E+03 0. -1.
<mgrwt>
<rscale>  2 0.27022880E+03</rscale>
<asrwt>0</asrwt>
<pdfrwt beam="1">  1       21 0.39301186E-01 0.27022880E+03</pdfrwt>
<pdfrwt beam="2">  1       21 0.52542492E-01 0.27022880E+03</pdfrwt>
<totfact> 0.20591472E+04</totfact>
</mgrwt>
</event>
<event>
 4    1  0.4441180E+000  0.2224841E+03  0.7546771E-02  0.1132045E+00
         21   -1    0    0  503  502  0.00000000000E+00  0.00000000000E+00  0.12514188210E+04  0.12514188210E+04  0.00000000000E+00 0.  1.
         21   -1    0    0  501  503 -0.00000000000E+00 -0.00000000000E+00 -0.96730332586E+02  0.96730332586E+02  0.00000000000E+00 0.  1.
          6    1    1    2  501    0  0.91652893921E+02 -0.10568779828E+03  0.59101649512E+02  0.23020027942E+03  0.17300000000E+03 0.  1.
         -6    1    1    2    0  502 -0.91652893921E+02  0.10568779828E+03  0.10955868389E+04  0.11179488741E+04  0.17300000000E+03 0.  1.
<mgrwt>
<rscale>  2 0.22248408E+03</rscale>
<asrwt>0</asrwt>
<pdfrwt beam="1">  1       21 0.19252596E+00 0.22248408E+03</pdfrwt>
<pdfrwt beam="2">  1       21 0.14881591E-01 0.22248408E+03</pdfrwt>
<totfact> 0.58246746E+03</totfact>
</mgrwt>
</event>
<event>
 4    1  0.4441180E+000  0.1739056E+03  0.7546771E-02  0.1173835E+00
         21   -1    0    0  501  502  0.00000000000E+00  0.00000000000E+00  0.86864039332E+03  0.86864039332E+03  0.00000000000E+00 0.  1.
         21   -1    0    0  502  503 -0.00000000000E+00 -0.00000000000E+00 -0.34818121654E+02  0.34818121654E+02  0.00000000000E+00 0.  1.
          6    1    1    2  501    0 -0.16812212620E+02 -0.56146209750E+01  0.41400422547E+03  0.44904640425E+03  0.17300000000E+03 0.  1.
         -6    1    1    2    0  503  0.16812212620E+02  0.56146209750E+01  0.41981804620E+03  0.45441211073E+03  0.17300000000E+03 0.  1.
<mgrwt>
<rscale>  2 0.17390565E+03</rscale>
<asrwt>0</asrwt>
<pdfrwt beam="1">  1       21 0.13363697E+00 0.17390565E+03</pdfrwt>
<pdfrwt beam="2">  1       21 0.53566348E-02 0.17390565E+03</pdfrwt>
<totfact> 0.97291249E+04</totfact>
</mgrwt>
</event>
<event>
 4    1  0.4441180E+000  0.1980479E+03  0.7546771E-02  0.1151396E+00
         21   -1    0    0  503  502  0.00000000000E+00  0.00000000000E+00  0.41455620336E+03  0.41455620336E+03  0.00000000000E+00 0. -1.
         21   -1    0    0  501  503 -0.00000000000E+00 -0.00000000000E+00 -0.97168433175E+02  0.97168433175E+02  0.00000000000E+00 0. -1.
          6    1    1    2  501    0  0.94312908941E+02 -0.19976516183E+02  0.11721213306E+03  0.23013402645E+03  0.17300000000E+03 0.  1.
         -6    1    1    2    0  502 -0.94312908941E+02  0.19976516183E+02  0.20017563713E+03  0.28159061009E+03  0.17300000000E+03 0.  1.
<mgrwt>
<rscale>  2 0.19804794E+03</rscale>
<asrwt>0</asrwt>
<pdfrwt beam="1">  1       21 0.63777876E-01 0.19804794E+03</pdfrwt>
<pdfrwt beam="2">  1       21 0.14948990E-01 0.19804794E+03</pdfrwt>
<totfact> 0.89448611E+04</totfact>
</mgrwt>
</event>
<event>
 4    1  0.4441180E+000  0.2015199E+03  0.7546771E-02  0.1148463E+00
         21   -1    0    0  503  502  0.00000000000E+00  0.00000000000E+00  0.97457870122E+03  0.97457870122E+03  0.00000000000E+00 0.  1.
         21   -1    0    0  501  503 -0.00000000000E+00 -0.00000000000E+00 -0.14559248639E+03  0.14559248639E+03  0.00000000000E+00 0.  1.
          6    1    1    2  501    0  0.53409811347E+02 -0.88479751609E+02 -0.58702370682E+02  0.20989579014E+03  0.17300000000E+03 0.  1.
         -6    1    1    2    0  502 -0.53409811347E+02  0.88479751609E+02  0.88768858552E+03  0.91027539748E+03  0.17300000000E+03 0.  1.
<mgrwt>
<rscale>  2 0.20151991E+03</rscale>
<asrwt>0</asrwt>
<pdfrwt beam="1">  1       21 0.14993518E+00 0.20151991E+03</pdfrwt>
<pdfrwt beam="2">  1       21 0.22398845E-01 0.20151991E+03</pdfrwt>
<totfact> 0.55429817E+03</totfact>
</mgrwt>
</event>
<event>
 4    1  0.4441180E+000  0.1939905E+03  0.7546771E-02  0.1154911E+00
         21   -1    0    0  501  502  0.00000000000E+00  0.00000000000E+00  0.42069061051E+02  0.42069061051E+02  0.00000000000E+00 0. -1.
         21   -1    0    0  502  503 -0.00000000000E+00 -0.00000000000E+00 -0.89500362479E+03  0.89500362479E+03  0.00000000000E+00 0.  1.
          6    1    1    2  501    0  0.54527257518E+02 -0.68775581671E+02 -0.41576102259E+03  0.45879137999E+03  0.17300000000E+03 0.  1.
         -6    1    1    2    0  503 -0.54527257518E+02  0.68775581671E+02 -0.43717354115E+03  0.47828130585E+03  0.17300000000E+03 0. -1.
<mgrwt>
<rscale>  2 0.19399047E+03</rscale>
<asrwt>0</asrwt>
<pdfrwt beam="1">  1       21 0.64721627E-02 0.19399047E+03</pdfrwt>
<pdfrwt beam="2">  1       21 0.13769288E+00 0.19399047E+03</pdfrwt>
<totfact> 0.64627821E+04</totfact>
</mgrwt>
</event>
<event>
 4    1  0.4441180E+000  0.2009515E+03  0.7546771E-02  0.1148939E+00
         21   -1    0    0  501  502  0.00000000000E+00  0.00000000000E+00  0.13218682131E+04  0.13218682131E+04  0.00000000000E+00 0.  1.
         21   -1    0    0  502  503 -0.00000000000E+00 -0.00000000000E+00 -0.30610802264E+02  0.30610802264E+02  0.00000000000E+00 0.  1.
          6    1    1    2  501    0 -0.48822325269E+02  0.89826868008E+02  0.67606363329E+03  0.70529676159E+03  0.17300000000E+03 0.  1.
         -6    1    1    2    0  503  0.48822325269E+02 -0.89826868008E+02  0.61519377755E+03  0.64718225377E+03  0.17300000000E+03 0.  1.
<mgrwt>
<rscale>  2 0.20095145E+03</rscale>
<asrwt>0</asrwt>
<pdfrwt beam="1">  1       21 0.20336430E+00 0.20095145E+03</pdfrwt>
<pdfrwt beam="2">  1       21 0.47093552E-02 0.20095145E+03</pdfrwt>
<totfact> 0.37821792E+04</totfact>
</mgrwt>
</event>
<event>
 4    1  0.4441180E+000  0.2251863E+03  0.7546771E-02  0.1130074E+00
         21   -1    0    0  501  502  0.00000000000E+00  0.00000000000E+00  0.16879150273E+03  0.16879150273E+03  0.00000000000E+00 0. -1.
         21   -1    0    0  502  503 -0.00000000000E+00 -0.00000000000E+00 -0.30710295438E+03  0.30710295438E+03  0.00000000000E+00 0.  1.
          6    1    1    2  501    0 -0.18783841509E+02  0.14292313020E+03 -0.34062395139E+02  0.22774788827E+03  0.17300000000E+03 0.  1.
         -6    1    1    2    0  503  0.18783841509E+02 -0.14292313020E+03 -0.10424905651E+03  0.24814656885E+03  0.17300000000E+03 0. -1.
<mgrwt>
<rscale>  2 0.22518626E+03</rscale>
<asrwt>0</asrwt>
<pdfrwt beam="1">  1       21 0.25967924E-01 0.22518626E+03</pdfrwt>
<pdfrwt beam="2">  1       21 0.47246607E-01 0.22518626E+03</pdfrwt>
<totfact> 0.59494059E+04</totfact>
</mgrwt>
</event>
<event>
 4    1  0.4441180E+000  0.1759335E+03  0.7546771E-02  0.1171798E+00
         21   -1    0    0  503  502  0.00000000000E+00  0.00000000000E+00  0.25444567272E+02  0.25444567272E+02  0.00000000000E+00 0. -1.
         21   -1    0    0  501  503 -0.00000000000E+00 -0.00000000000E+00 -0.22842322664E+04  0.22842322664E+04  0.00000000000E+00 0. -1.
          6    1    1    2  501    0 -0.28001925886E+02 -0.15475770459E+02 -0.19189589433E+04  0.19270070144E+04  0.17300000000E+03 0. -1.
         -6    1    1    2    0  502  0.28001925886E+02  0.15475770459E+02 -0.33982875584E+03  0.38266981932E+03  0.17300000000E+03 0. -1.
<mgrwt>
<rscale>  2 0.17593353E+03</rscale>
<asrwt>0</asrwt>
<pdfrwt beam="1">  1       21 0.39145490E-02 0.17593353E+03</pdfrwt>
<pdfrwt beam="2">  1       21 0.35142033E+00 0.17593353E+03</pdfrwt>
<totfact> 0.71213190E+03</totfact>
</mgrwt>
</event>
<event>
 4    1  0.4441180E+000  0.1929870E+03  0.7546771E-02  0.1155794E+00
         21   -1    0    0  503  502  0.00000000000E+00  0.00000000000E+00  0.10123900695E+03  0.10123900695E+03  0.00000000000E+00 0. -1.
         21   -1    0    0  501  503 -0.00000000000E+00 -0.00000000000E+00 -0.37004692528E+03  0.37004692528E+03  0.00000000000E+00 0.  1.
          6    1    1    2  501    0 -0.83667687174E+02  0.17739996645E+02 -0.15242858910E+03  0.24592369576E+03  0.17300000000E+03 0.  1.
         -6    1    1    2    0  502  0.83667687174E+02 -0.17739996645E+02 -0.11637932923E+03  0.22536223648E+03  0.17300000000E+03 0. -1.
<mgrwt>
<rscale>  2 0.19298702E+03</rscale>
<asrwt>0</asrwt>
<pdfrwt beam="1">  1       21 0.15575232E-01 0.19298702E+03</pdfrwt>
<pdfrwt beam="2">  1       21 0.56930297E-01 0.19298702E+03</pdfrwt>
<totfact> 0.10617717E+05</totfact>
</mgrwt>
</event>
<event>
 4    1  0.4441180E+000  0.1962260E+03  0.7546771E-02  0.1152963E+00
         21   -1    0    0  501  502  0.00000000000E+00  0.00000000000E+00  0.16081891187E+03  0.16081891187E+03  0.00000000000E+00 0. -1.
         21   -1    0    0  502  503 -0.00000000000E+00 -0.00000000000E+00 -0.26218084865E+03  0.26218084865E+03  0.00000000000E+00 0.  1.
          6    1    1    2  501    0  0.67052743003E+02  0.63871476771E+02  0.11623968546E+02  0.19656996855E+03  0.17300000000E+03 0. -1.
         -6    1    1    2    0  503 -0.67052743003E+02 -0.63871476771E+02 -0.11298590533E+03  0.22642979197E+03  0.17300000000E+03 0.  1.
<mgrwt>
<rscale>  2 0.19622598E+03</rscale>
<asrwt>0</asrwt>
<pdfrwt beam="1">  1       21 0.24741371E-01 0.19622598E+03</pdfrwt>
<pdfrwt beam="2">  1       21 0.40335515E-01 0.19622598E+03</pdfrwt>
<totfact> 0.91374577E+04</totfact>
</mgrwt>
</event>
<event>
 4    1  0.4441180E+000  0.1791516E+03  0.7546771E-02  0.1168627E+00
         21   -1    0    0  501  502  0.00000000000E+00  0.00000000000E+00  0.61091795037E+03  0.61091795037E+03  0.00000000000E+00 0. -1.
         21   -1    0    0  502  503 -0.00000000000E+00 -0.00000000000E+00 -0.57931896433E+02  0.57931896433E+02  0.00000000000E+00 0. -1.
          6    1    1    2  501    0 -0.10711175791E+02  0.45294286388E+02  0.37855498829E+03  0.41880685384E+03  0.17300000000E+03 0.  1.
         -6    1    1    2    0  503  0.10711175791E+02 -0.45294286388E+02  0.17443106565E+03  0.25004299296E+03  0.17300000000E+03 0.  1.
<mgrwt>
<rscale>  2 0.17915162E+03</rscale>
<asrwt>0</asrwt>
<pdfrwt beam="1">  1       21 0.93987372E-01 0.17915162E+03</pdfrwt>
<pdfrwt beam="2">  1       21 0.89125999E-02 0.17915162E+03</pdfrwt>
<totfact> 0.94913354E+04</totfact>
</mgrwt>
</event>
<event>
 4    1  0.4441180E+000  0.1980802E+03  0.7546771E-02  0.1151369E+00
         21   -1    0    0  503  502  0.00000000000E+00  0.00000000000E+00  0.21676099843E+04  0.21676099843E+04  0.00000000000E+00 0.  1.
         21   -1    0    0  501  503 -0.00000000000E+00 -0.00000000000E+00 -0.55770851972E+02  0.55770851972E+02  0.00000000000E+00 0.  1.
          6    1    1    2  501    0  0.96445292368E+02 -0.22513990209E+01  0.14227438991E+03  0.24388063728E+03  0.17300000000E+03 0.  1.
         -6    1    1    2    0  502 -0.96445292368E+02  0.22513990209E+01  0.19695647424E+04  0.19795001990E+04  0.17300000000E+03 0.  1.
<mgrwt>
<rscale>  2 0.19808019E+03</rscale>
<asrwt>0</asrwt>
<pdfrwt beam="1">  1       21 0.33347839E+00 0.19808019E+03</pdfrwt>
<pdfrwt beam="2">  1       21 0.85801327E-02 0.19808019E+03</pdfrwt>
<totfact> 0.23048674E+03</totfact>
</mgrwt>
</event>
<event>
 4    1  0.4441180E+000  0.2247641E+03  0.7546771E-02  0.1130380E+00
         21   -1    0    0  501  502  0.00000000000E+00  0.00000000000E+00  0.15813577727E+04  0.15813577727E+04  0.00000000000E+00 0.  1.
         21   -1    0    0  502  503 -0.00000000000E+00 -0.00000000000E+00 -0.32466454569E+02  0.32466454569E+02  0.00000000000E+00 0.  1.
          6    1    1    2  501    0  0.27993068378E+02  0.14073481191E+03  0.67233349396E+03  0.70890847523E+03  0.17300000000E+03 0. -1.
         -6    1    1    2    0  503 -0.27993068378E+02 -0.14073481191E+03  0.87655782414E+03  0.90491575200E+03  0.17300000000E+03 0. -1.
<mgrwt>
<rscale>  2 0.22476410E+03</rscale>
<asrwt>0</asrwt>
<pdfrwt beam="1">  1       21 0.24328575E+00 0.22476410E+03</pdfrwt>
<pdfrwt beam="2">  1       21 0.49948404E-02 0.22476410E+03</pdfrwt>
<totfact> 0.19118768E+04</totfact>
</mgrwt>
</event>
<event>
 4    1  0.4441180E+000  0.2179162E+03  0.7546771E-02  0.1135446E+00
         21   -1    0    0  501  502  0.00000000000E+00  0.00000000000E+00  0.22644574209E+04  0.22644574209E+04  0.00000000000E+00 0.  1.
         21   -1    0    0  502  503 -0.00000000000E+00 -0.00000000000E+00 -0.37568015508E+02  0.37568015508E+02  0.00000000000E+00 0.  1.
          6    1    1    2  501    0  0.39072577384E+01 -0.13245077704E+03  0.18784926635E+04  0.18910902046E+04  0.17300000000E+03 0.  1.
         -6    1    1    2    0  503 -0.39072577384E+01  0.13245077704E+03  0.34839674188E+03  0.41093523182E+03  0.17300000000E+03 0.  1.
<mgrwt>
<rscale>  2 0.21791621E+03</rscale>
<asrwt>0</asrwt>
<pdfrwt beam="1">  1       21 0.34837796E+00 0.21791621E+03</pdfrwt>
<pdfrwt beam="2">  1       21 0.57796965E-02 0.21791621E+03</pdfrwt>
<totfact> 0.36423450E+03</totfact>
</mgrwt>
</event>
<event>
 4    1  0.4441180E+000  0.2006489E+03  0.7546771E-02  0.1149193E+00
         21   -1    0    0  501  502  0.00000000000E+00  0.00000000000E+00  0.53522744599E+03  0.53522744599E+03  0.00000000000E+00 0. -1.
         21   -1    0    0  502  503 -0.00000000000E+00 -0.00000000000E+00 -0.96784202096E+02  0.96784202096E+02  0.00000000000E+00 0.  1.
          6    1    1    2  501    0  0.86847047037E+02 -0.52807013114E+02  0.70060333049E+02  0.21252868155E+03  0.17300000000E+03 0.  1.
         -6    1    1    2    0  503 -0.86847047037E+02  0.52807013114E+02  0.36838291085E+03  0.41948296654E+03  0.17300000000E+03 0. -1.
<mgrwt>
<rscale>  2 0.20064892E+03</rscale>
<asrwt>0</asrwt>
<pdfrwt beam="1">  1       21 0.82342682E-01 0.20064892E+03</pdfrwt>
<pdfrwt beam="2">  1       21 0.14889878E-01 0.20064892E+03</pdfrwt>
<totfact> 0.51014679E+04</totfact>
</mgrwt>
</event>
<event>
 4    1  0.4441180E+000  0.1734702E+03  0.7546771E-02  0.1174277E+00
         21   -1    0    0  503  502  0.00000000000E+00  0.00000000000E+00  0.23503547586E+02  0.23503547586E+02  0.00000000000E+00 0.  1.
         21   -1    0    0  501  503 -0.00000000000E+00 -0.00000000000E+00 -0.15380867172E+04  0.15380867172E+04  0.00000000000E+00 0.  1.
          6    1    1    2  501    0 -0.10571480264E+02  0.71522543119E+01 -0.10769348237E+04  0.10908164490E+04  0.17300000000E+03 0. -1.
         -6    1    1    2    0  502  0.10571480264E+02 -0.71522543119E+01 -0.43764834591E+03  0.47077381577E+03  0.17300000000E+03 0. -1.
<mgrwt>
<rscale>  2 0.17347020E+03</rscale>
<asrwt>0</asrwt>
<pdfrwt beam="1">  1       21 0.36159298E-02 0.17347020E+03</pdfrwt>
<pdfrwt beam="2">  1       21 0.23662876E+00 0.17347020E+03</pdfrwt>
<totfact> 0.37587417E+04</totfact>
</mgrwt>
</event>
<event>
 4    1  0.4441180E+000  0.3487364E+03  0.7546771E-02  0.1063135E+00
         21   -1    0    0  501  502  0.00000000000E+00  0.00000000000E+00  0.84115775165E+03  0.84115775165E+03  0.00000000000E+00 0. -1.
         21   -1    0    0  502  503 -0.00000000000E+00 -0.00000000000E+00 -0.58594976729E+03  0.58594976729E+03  0.00000000000E+00 0. -1.
          6    1    1    2  501    0  0.21390312672E+03 -0.21432107127E+03  0.74689724022E+03  0.82430125359E+03  0.17300000000E+03 0. -1.
         -6    1    1    2    0  503 -0.21390312672E+03  0.21432107127E+03 -0.49168925586E+03  0.60280626535E+03  0.17300000000E+03 0. -1.
<mgrwt>
<rscale>  2 0.34873639E+03</rscale>
<asrwt>0</asrwt>
<pdfrwt beam="1">  1       21 0.12940889E+00 0.34873639E+03</pdfrwt>
<pdfrwt beam="2">  1       21 0.90146117E-01 0.34873639E+03</pdfrwt>
<totfact> 0.40132891E+02</totfact>
</mgrwt>
</event>
<event>
 4    1  0.4441180E+000  0.2270067E+03  0.7546771E-02  0.1128764E+00
         21   -1    0    0  501  502  0.00000000000E+00  0.00000000000E+00  0.10350583109E+04  0.10350583109E+04  0.00000000000E+00 0.  1.
         21   -1    0    0  502  503 -0.00000000000E+00 -0.00000000000E+00 -0.81282365489E+02  0.81282365489E+02  0.00000000000E+00 0.  1.
          6    1    1    2  501    0 -0.96147664458E+02  0.11116961806E+03  0.82433973272E+03  0.85502517642E+03  0.17300000000E+03 0.  1.
         -6    1    1    2    0  503  0.96147664458E+02 -0.11116961806E+03  0.12943621264E+03  0.26131549993E+03  0.17300000000E+03 0.  1.
<mgrwt>
<rscale>  2 0.22700673E+03</rscale>
<asrwt>0</asrwt>
<pdfrwt beam="1">  1       21 0.15923973E+00 0.22700673E+03</pdfrwt>
<pdfrwt beam="2">  1       21 0.12504980E-01 0.22700673E+03</pdfrwt>
<totfact> 0.13565804E+04</totfact>
</mgrwt>
</event>
<event>
 4    1  0.4441180E+000  0.1749156E+03  0.7546771E-02  0.1172816E+00
         21   -1    0    0  501  502  0.00000000000E+00  0.00000000000E+00  0.24547583286E+03  0.24547583286E+03  0.00000000000E+00 0.  1.
         21   -1    0    0  502  503 -0.00000000000E+00 -0.00000000000E+00 -0.26441794444E+03  0.26441794444E+03  0.00000000000E+00 0.  1.
          6    1    1    2  501    0  0.82482354627E+01 -0.24463251061E+02  0.17589385485E+03  0.24806074299E+03  0.17300000000E+03 0.  1.
         -6    1    1    2    0  503 -0.82482354627E+01  0.24463251061E+02 -0.19483596643E+03  0.26183303431E+03  0.17300000000E+03 0.  1.
<mgrwt>
<rscale>  2 0.17491565E+03</rscale>
<asrwt>0</asrwt>
<pdfrwt beam="1">  1       21 0.37765513E-01 0.17491565E+03</pdfrwt>
<pdfrwt beam="2">  1       21 0.40679684E-01 0.17491565E+03</pdfrwt>
<totfact> 0.39721449E+04</totfact>
</mgrwt>
</event>
<event>
 4    1  0.4441180E+000  0.2014382E+03  0.7546771E-02  0.1148531E+00
         21   -1    0    0  503  502  0.00000000000E+00  0.00000000000E+00  0.13434322465E+04  0.13434322465E+04  0.00000000000E+00 0. -1.
         21   -1    0    0  501  503 -0.00000000000E+00 -0.00000000000E+00 -0.54513130872E+02  0.54513130872E+02  0.00000000000E+00 0. -1.
          6    1    1    2  501    0 -0.46689560515E+02 -0.92024082948E+02  0.17770105689E+03  0.26861685078E+03  0.17300000000E+03 0. -1.
         -6    1    1    2    0  502  0.46689560515E+02  0.92024082948E+02  0.11112180587E+04  0.11293285266E+04  0.17300000000E+03 0. -1.
<mgrwt>
<rscale>  2 0.20143820E+03</rscale>
<asrwt>0</asrwt>
<pdfrwt beam="1">  1       21 0.20668186E+00 0.20143820E+03</pdfrwt>
<pdfrwt beam="2">  1       21 0.83866365E-02 0.20143820E+03</pdfrwt>
<totfact> 0.13359683E+04</totfact>
</mgrwt>
</event>
<event>
 4    1  0.4441180E+000  0.2223011E+03  0.7546771E-02  0.1132179E+00
         21   -1    0    0  503  502  0.00000000000E+00  0.00000000000E+00  0.21686545749E+03  0.21686545749E+03  0.00000000000E+00 0.  1.
         21   -1    0    0  501  503 -0.00000000000E+00 -0.00000000000E+00 -0.12493886184E+04  0.12493886184E+04  0.00000000000E+00 0. -1.
          6    1    1    2  501    0 -0.12054387801E+03  0.70412742135E+02 -0.11791691394E+04  0.11999406819E+04  0.17300000000E+03 0. -1.
         -6    1    1    2    0  502  0.12054387801E+03 -0.70412742135E+02  0.14664597852E+03  0.26631339395E+03  0.17300000000E+03 0.  1.
<mgrwt>
<rscale>  2 0.22230110E+03</rscale>
<asrwt>0</asrwt>
<pdfrwt beam="1">  1       21 0.33363917E-01 0.22230110E+03</pdfrwt>
<pdfrwt beam="2">  1       21 0.19221363E+00 0.22230110E+03</pdfrwt>
<totfact> 0.12657791E+03</totfact>
</mgrwt>
</event>
<event>
 4    1  0.4441180E+000  0.2025625E+03  0.7546771E-02  0.1147595E+00
         21   -1    0    0  503  502  0.00000000000E+00  0.00000000000E+00  0.19821188428E+03  0.19821188428E+03  0.00000000000E+00 0.  1.
         21   -1    0    0  501  503 -0.00000000000E+00 -0.00000000000E+00 -0.28431660520E+03  0.28431660520E+03  0.00000000000E+00 0. -1.
          6    1    1    2  501    0  0.10372915649E+03 -0.18515299683E+02  0.82754473614E+02  0.21881466389E+03  0.17300000000E+03 0.  1.
         -6    1    1    2    0  502 -0.10372915649E+03  0.18515299683E+02 -0.16885919453E+03  0.26371382559E+03  0.17300000000E+03 0. -1.
<mgrwt>
<rscale>  2 0.20256247E+03</rscale>
<asrwt>0</asrwt>
<pdfrwt beam="1">  1       21 0.30494136E-01 0.20256247E+03</pdfrwt>
<pdfrwt beam="2">  1       21 0.43741016E-01 0.20256247E+03</pdfrwt>
<totfact> 0.51592925E+04</totfact>
</mgrwt>
</event>
<event>
 4    1  0.4441180E+000  0.2825340E+03  0.7546771E-02  0.1094313E+00
         21   -1    0    0  501  502  0.00000000000E+00  0.00000000000E+00  0.16668429056E+03  0.16668429056E+03  0.00000000000E+00 0.  1.
         21   -1    0    0  502  503 -0.00000000000E+00 -0.00000000000E+00 -0.62549584557E+03  0.62549584557E+03  0.00000000000E+00 0.  1.
          6    1    1    2  501    0  0.12751406109E+03 -0.18340295657E+03 -0.37654065526E+02  0.28503211907E+03  0.17300000000E+03 0.  1.
         -6    1    1    2    0  503 -0.12751406109E+03  0.18340295657E+03 -0.42115748949E+03  0.50714801706E+03  0.17300000000E+03 0.  1.
<mgrwt>
<rscale>  2 0.28253403E+03</rscale>
<asrwt>0</asrwt>
<pdfrwt beam="1">  1       21 0.25643737E-01 0.28253403E+03</pdfrwt>
<pdfrwt beam="2">  1       21 0.96230131E-01 0.28253403E+03</pdfrwt>
<totfact> 0.12316730E+04</totfact>
</mgrwt>
</event>
<event>
 4    1  0.4441180E+000  0.2318838E+03  0.7546771E-02  0.1125321E+00
         21   -1    0    0  501  502  0.00000000000E+00  0.00000000000E+00  0.52069604341E+03  0.52069604341E+03  0.00000000000E+00 0.  1.
         21   -1    0    0  502  503 -0.00000000000E+00 -0.00000000000E+00 -0.16051005375E+03  0.16051005375E+03  0.00000000000E+00 0. -1.
          6    1    1    2  501    0  0.24995794521E+02  0.15236898057E+03  0.38349879910E+03  0.44815334976E+03  0.17300000000E+03 0.  1.
         -6    1    1    2    0  503 -0.24995794521E+02 -0.15236898057E+03 -0.23312809441E+02  0.23305274740E+03  0.17300000000E+03 0. -1.
<mgrwt>
<rscale>  2 0.23188380E+03</rscale>
<asrwt>0</asrwt>
<pdfrwt beam="1">  1       21 0.80107083E-01 0.23188380E+03</pdfrwt>
<pdfrwt beam="2">  1       21 0.24693855E-01 0.23188380E+03</pdfrwt>
<totfact> 0.20791741E+04</totfact>
</mgrwt>
</event>
<event>
 4    1  0.4441180E+000  0.2935736E+03  0.7546771E-02  0.1088498E+00
         21   -1    0    0  501  502  0.00000000000E+00  0.00000000000E+00  0.19267561187E+03  0.19267561187E+03  0.00000000000E+00 0. -1.
         21   -1    0    0  502  503 -0.00000000000E+00 -0.00000000000E+00 -0.47927771456E+03  0.47927771456E+03  0.00000000000E+00 0. -1.
          6    1    1    2  501    0  0.13518649666E+03 -0.19488726294E+03 -0.56528643851E+02  0.29896642238E+03  0.17300000000E+03 0. -1.
         -6    1    1    2    0  503 -0.13518649666E+03  0.19488726294E+03 -0.23007345884E+03  0.37298690406E+03  0.17300000000E+03 0. -1.
<mgrwt>
<rscale>  2 0.29357356E+03</rscale>
<asrwt>0</asrwt>
<pdfrwt beam="1">  1       21 0.29642402E-01 0.29357356E+03</pdfrwt>
<pdfrwt beam="2">  1       21 0.73735032E-01 0.29357356E+03</pdfrwt>
<totfact> 0.17093921E+04</totfact>
</mgrwt>
</event>
<event>
 4    1  0.4441180E+000  0.2725239E+03  0.7546771E-02  0.1099844E+00
         21   -1    0    0  503  502  0.00000000000E+00  0.00000000000E+00  0.24508640825E+03  0.24508640825E+03  0.00000000000E+00 0.  1.
         21   -1    0    0  501  503 -0.00000000000E+00 -0.00000000000E+00 -0.55864725788E+03  0.55864725788E+03  0.00000000000E+00 0. -1.
          6    1    1    2  501    0 -0.21056807581E+03  0.11584064285E+01 -0.42861576158E+03  0.50791803230E+03  0.17300000000E+03 0. -1.
         -6    1    1    2    0  502  0.21056807581E+03 -0.11584064285E+01  0.11505491196E+03  0.29581563383E+03  0.17300000000E+03 0.  1.
<mgrwt>
<rscale>  2 0.27252386E+03</rscale>
<asrwt>0</asrwt>
<pdfrwt beam="1">  1       21 0.37705601E-01 0.27252386E+03</pdfrwt>
<pdfrwt beam="2">  1       21 0.85945733E-01 0.27252386E+03</pdfrwt>
<totfact> 0.75358741E+03</totfact>
</mgrwt>
</event>
<event>
 4    1  0.4441180E+000  0.1931617E+03  0.7546771E-02  0.1155640E+00
         21   -1    0    0  501  502  0.00000000000E+00  0.00000000000E+00  0.11730676341E+03  0.11730676341E+03  0.00000000000E+00 0.  1.
         21   -1    0    0  502  503 -0.00000000000E+00 -0.00000000000E+00 -0.34444802032E+03  0.34444802032E+03  0.00000000000E+00 0. -1.
          6    1    1    2  501    0 -0.85780709605E+02 -0.49094063911E+01 -0.49676080010E+02  0.19944709909E+03  0.17300000000E+03 0.  1.
         -6    1    1    2    0  503  0.85780709605E+02  0.49094063911E+01 -0.17746517690E+03  0.26230768464E+03  0.17300000000E+03 0. -1.
<mgrwt>
<rscale>  2 0.19316167E+03</rscale>
<asrwt>0</asrwt>
<pdfrwt beam="1">  1       21 0.18047195E-01 0.19316167E+03</pdfrwt>
<pdfrwt beam="2">  1       21 0.52992002E-01 0.19316167E+03</pdfrwt>
<totfact> 0.94250795E+04</totfact>
</mgrwt>
</event>
<event>
 4    1  0.4441180E+000  0.2140762E+03  0.7546771E-02  0.1138378E+00
         21   -1    0    0  501  502  0.00000000000E+00  0.00000000000E+00  0.16130044189E+03  0.16130044189E+03  0.00000000000E+00 0. -1.
         21   -1    0    0  502  503 -0.00000000000E+00 -0.00000000000E+00 -0.12816720729E+04  0.12816720729E+04  0.00000000000E+00 0.  1.
          6    1    1    2  501    0 -0.11529278921E+03  0.51060584687E+02  0.76327489446E+02  0.22727625525E+03  0.17300000000E+03 0. -1.
         -6    1    1    2    0  503  0.11529278921E+03 -0.51060584687E+02 -0.11966991205E+04  0.12156962595E+04  0.17300000000E+03 0.  1.
<mgrwt>
<rscale>  2 0.21407618E+03</rscale>
<asrwt>0</asrwt>
<pdfrwt beam="1">  1       21 0.24815451E-01 0.21407618E+03</pdfrwt>
<pdfrwt beam="2">  1       21 0.19718033E+00 0.21407618E+03</pdfrwt>
<totfact> 0.21055386E+03</totfact>
</mgrwt>
</event>
<event>
 4    1  0.4441180E+000  0.1932805E+03  0.7546771E-02  0.1155535E+00
         21   -1    0    0  501  502  0.00000000000E+00  0.00000000000E+00  0.42373647445E+03  0.42373647445E+03  0.00000000000E+00 0. -1.
         21   -1    0    0  502  503 -0.00000000000E+00 -0.00000000000E+00 -0.14738633887E+03  0.14738633887E+03  0.00000000000E+00 0. -1.
          6    1    1    2  501    0  0.75213899085E+02 -0.42086054072E+02  0.31919307251E+03  0.37315088651E+03  0.17300000000E+03 0. -1.
         -6    1    1    2    0  503 -0.75213899085E+02  0.42086054072E+02 -0.42842936928E+02  0.19797192682E+03  0.17300000000E+03 0. -1.
<mgrwt>
<rscale>  2 0.19328054E+03</rscale>
<asrwt>0</asrwt>
<pdfrwt beam="1">  1       21 0.65190226E-01 0.19328054E+03</pdfrwt>
<pdfrwt beam="2">  1       21 0.22674822E-01 0.19328054E+03</pdfrwt>
<totfact> 0.39476800E+04</totfact>
</mgrwt>
</event>
<event>
 4    1  0.4441180E+000  0.2506672E+03  0.7546771E-02  0.1112884E+00
         21   -1    0    0  503  502  0.00000000000E+00  0.00000000000E+00  0.90312565538E+03  0.90312565538E+03  0.00000000000E+00 0.  1.
         21   -1    0    0  501  503 -0.00000000000E+00 -0.00000000000E+00 -0.24088684181E+03  0.24088684181E+03  0.00000000000E+00 0. -1.
          6    1    1    2  501    0  0.16072171495E+03  0.84104425823E+02 -0.15126054565E+03  0.29276915269E+03  0.17300000000E+03 0. -1.
         -6    1    1    2    0  502 -0.16072171495E+03 -0.84104425823E+02  0.81349935922E+03  0.85124334450E+03  0.17300000000E+03 0.  1.
<mgrwt>
<rscale>  2 0.25066716E+03</rscale>
<asrwt>0</asrwt>
<pdfrwt beam="1">  1       21 0.13894241E+00 0.25066716E+03</pdfrwt>
<pdfrwt beam="2">  1       21 0.37059515E-01 0.25066716E+03</pdfrwt>
<totfact> 0.24432775E+03</totfact>
</mgrwt>
</event>
<event>
 4    1  0.4441180E+000  0.2224053E+03  0.7546771E-02  0.1132102E+00
         21   -1    0    0  503  502  0.00000000000E+00  0.00000000000E+00  0.12310054054E+03  0.12310054054E+03  0.00000000000E+00 0.  1.
         21   -1    0    0  501  503 -0.00000000000E+00 -0.00000000000E+00 -0.41202662223E+03  0.41202662223E+03  0.00000000000E+00 0.  1.
          6    1    1    2  501    0 -0.37157180252E+02 -0.13473851556E+03 -0.10234881593E+03  0.24482525144E+03  0.17300000000E+03 0.  1.
         -6    1    1    2    0  502  0.37157180252E+02  0.13473851556E+03 -0.18657726576E+03  0.29030191133E+03  0.17300000000E+03 0.  1.
<mgrwt>
<rscale>  2 0.22240531E+03</rscale>
<asrwt>0</asrwt>
<pdfrwt beam="1">  1       21 0.18938545E-01 0.22240531E+03</pdfrwt>
<pdfrwt beam="2">  1       21 0.63388711E-01 0.22240531E+03</pdfrwt>
<totfact> 0.58012751E+04</totfact>
</mgrwt>
</event>
<event>
 4    1  0.4441180E+000  0.2269541E+03  0.7546771E-02  0.1128802E+00
         21   -1    0    0  501  502  0.00000000000E+00  0.00000000000E+00  0.29020561845E+03  0.29020561845E+03  0.00000000000E+00 0.  1.
         21   -1    0    0  502  503 -0.00000000000E+00 -0.00000000000E+00 -0.23532712855E+03  0.23532712855E+03  0.00000000000E+00 0. -1.
          6    1    1    2  501    0  0.10546686331E+02 -0.14651941390E+03  0.15770871193E+03  0.27636969635E+03  0.17300000000E+03 0.  1.
         -6    1    1    2    0  503 -0.10546686331E+02  0.14651941390E+03 -0.10283022204E+03  0.24916305065E+03  0.17300000000E+03 0. -1.
<mgrwt>
<rscale>  2 0.22695412E+03</rscale>
<asrwt>0</asrwt>
<pdfrwt beam="1">  1       21 0.44647019E-01 0.22695412E+03</pdfrwt>
<pdfrwt beam="2">  1       21 0.36204173E-01 0.22695412E+03</pdfrwt>
<totfact> 0.34819227E+04</totfact>
</mgrwt>
</event>
<event>
 4    1  0.4441180E+000  0.2027131E+03  0.7546771E-02  0.1147470E+00
         21   -1    0    0  503  502  0.00000000000E+00  0.00000000000E+00  0.16231457355E+03  0.16231457355E+03  0.00000000000E+00 0.  1.
         21   -1    0    0  501  503 -0.00000000000E+00 -0.00000000000E+00 -0.33258511247E+03  0.33258511247E+03  0.00000000000E+00 0.  1.
          6    1    1    2  501    0 -0.34893913097E+02 -0.99729747693E+02 -0.20605495457E+03  0.28905233445E+03  0.17300000000E+03 0.  1.
         -6    1    1    2    0  502  0.34893913097E+02  0.99729747693E+02  0.35784415654E+02  0.20584735157E+03  0.17300000000E+03 0.  1.
<mgrwt>
<rscale>  2 0.20271312E+03</rscale>
<asrwt>0</asrwt>
<pdfrwt beam="1">  1       21 0.24971473E-01 0.20271312E+03</pdfrwt>
<pdfrwt beam="2">  1       21 0.51166940E-01 0.20271312E+03</pdfrwt>
<totfact> 0.54855880E+04</totfact>
</mgrwt>
</event>
<event>
 4    1  0.4441180E+000  0.1929808E+03  0.7546771E-02  0.1155800E+00
         21   -1    0    0  503  502  0.00000000000E+00  0.00000000000E+00  0.62050008239E+03  0.62050008239E+03  0.00000000000E+00 0.  1.
         21   -1    0    0  501  503 -0.00000000000E+00 -0.00000000000E+00 -0.79024684120E+02  0.79024684120E+02  0.00000000000E+00 0.  1.
          6    1    1    2  501    0  0.52395177384E+02  0.67582054954E+02  0.99208817554E+02  0.21698842883E+03  0.17300000000E+03 0.  1.
         -6    1    1    2    0  502 -0.52395177384E+02 -0.67582054954E+02  0.44226658071E+03  0.48253633768E+03  0.17300000000E+03 0.  1.
<mgrwt>
<rscale>  2 0.19298080E+03</rscale>
<asrwt>0</asrwt>
<pdfrwt beam="1">  1       21 0.95461548E-01 0.19298080E+03</pdfrwt>
<pdfrwt beam="2">  1       21 0.12157644E-01 0.19298080E+03</pdfrwt>
<totfact> 0.52500197E+04</totfact>
</mgrwt>
</event>
<event>
 4    1  0.4441180E+000  0.1806980E+03  0.7546771E-02  0.1167129E+00
         21   -1    0    0  503  502  0.00000000000E+00  0.00000000000E+00  0.63715024461E+02  0.63715024461E+02  0.00000000000E+00 0.  1.
         21   -1    0    0  501  503 -0.00000000000E+00 -0.00000000000E+00 -0.65062897101E+03  0.65062897101E+03  0.00000000000E+00 0.  1.
          6    1    1    2  501    0  0.11452767797E+02  0.50907921475E+02 -0.45804815737E+03  0.49240216981E+03  0.17300000000E+03 0.  1.
         -6    1    1    2    0  502 -0.11452767797E+02 -0.50907921475E+02 -0.12886578918E+03  0.22194182566E+03  0.17300000000E+03 0.  1.
<mgrwt>
<rscale>  2 0.18069804E+03</rscale>
<asrwt>0</asrwt>
<pdfrwt beam="1">  1       21 0.98023118E-02 0.18069804E+03</pdfrwt>
<pdfrwt beam="2">  1       21 0.10009676E+00 0.18069804E+03</pdfrwt>
<totfact> 0.69226891E+04</totfact>
</mgrwt>
</event>
<event>
 4    1  0.4441180E+000  0.1992531E+03  0.7546771E-02  0.1150371E+00
         21   -1    0    0  501  502  0.00000000000E+00  0.00000000000E+00  0.10095216362E+04  0.10095216362E+04  0.00000000000E+00 0.  1.
         21   -1    0    0  502  503 -0.00000000000E+00 -0.00000000000E+00 -0.45912001587E+02  0.45912001587E+02  0.00000000000E+00 0.  1.
          6    1    1    2  501    0 -0.62846212312E+02 -0.76309615863E+02  0.68165495241E+03  0.71017975050E+03  0.17300000000E+03 0.  1.
         -6    1    1    2    0  503  0.62846212312E+02  0.76309615863E+02  0.28195468224E+03  0.34525388733E+03  0.17300000000E+03 0.  1.
<mgrwt>
<rscale>  2 0.19925312E+03</rscale>
<asrwt>0</asrwt>
<pdfrwt beam="1">  1       21 0.15531100E+00 0.19925312E+03</pdfrwt>
<pdfrwt beam="2">  1       21 0.70633856E-02 0.19925312E+03</pdfrwt>
<totfact> 0.40439202E+04</totfact>
</mgrwt>
</event>
<event>
 4    1  0.4441180E+000  0.1933027E+03  0.7546771E-02  0.1155516E+00
         21   -1    0    0  503  502  0.00000000000E+00  0.00000000000E+00  0.47508705431E+03  0.47508705431E+03  0.00000000000E+00 0. -1.
         21   -1    0    0  501  503 -0.00000000000E+00 -0.00000000000E+00 -0.18246916759E+03  0.18246916759E+03  0.00000000000E+00 0. -1.
          6    1    1    2  501    0  0.14258388696E+01 -0.86225810540E+02 -0.10168751789E+03  0.21841766118E+03  0.17300000000E+03 0. -1.
         -6    1    1    2    0  502 -0.14258388696E+01  0.86225810540E+02  0.39430540460E+03  0.43913856072E+03  0.17300000000E+03 0. -1.
<mgrwt>
<rscale>  2 0.19330267E+03</rscale>
<asrwt>0</asrwt>
<pdfrwt beam="1">  1       21 0.73090316E-01 0.19330267E+03</pdfrwt>
<pdfrwt beam="2">  1       21 0.28072180E-01 0.19330267E+03</pdfrwt>
<totfact> 0.20407818E+04</totfact>
</mgrwt>
</event>
<event>
 4    1  0.4441180E+000  0.1757526E+03  0.7546771E-02  0.1171978E+00
         21   -1    0    0  501  502  0.00000000000E+00  0.00000000000E+00  0.15108033360E+04  0.15108033360E+04  0.00000000000E+00 0. -1.
         21   -1    0    0  502  503 -0.00000000000E+00 -0.00000000000E+00 -0.24972128108E+02  0.24972128108E+02  0.00000000000E+00 0. -1.
          6    1    1    2  501    0 -0.30922249009E+02  0.19477759076E+01  0.10698511427E+04  0.10841911486E+04  0.17300000000E+03 0. -1.
         -6    1    1    2    0  503  0.30922249009E+02 -0.19477759076E+01  0.41598006522E+03  0.45158431547E+03  0.17300000000E+03 0. -1.
<mgrwt>
<rscale>  2 0.17575261E+03</rscale>
<asrwt>0</asrwt>
<pdfrwt beam="1">  1       21 0.23243121E+00 0.17575261E+03</pdfrwt>
<pdfrwt beam="2">  1       21 0.38418670E-02 0.17575261E+03</pdfrwt>
<totfact> 0.35921959E+04</totfact>
</mgrwt>
</event>
<event>
 4    1  0.4441180E+000  0.1758588E+03  0.7546771E-02  0.1171872E+00
         21   -1    0    0  501  502  0.00000000000E+00  0.00000000000E+00  0.85232588375E+02  0.85232588375E+02  0.00000000000E+00 0. -1.
         21   -1    0    0  502  503 -0.00000000000E+00 -0.00000000000E+00 -0.60145709413E+03  0.60145709413E+03  0.00000000000E+00 0. -1.
          6    1    1    2  501    0  0.31276721397E+02  0.43682220374E+01 -0.41853646323E+02  0.18077069003E+03  0.17300000000E+03 0. -1.
         -6    1    1    2    0  503 -0.31276721397E+02 -0.43682220374E+01 -0.47437085943E+03  0.50591899247E+03  0.17300000000E+03 0. -1.
<mgrwt>
<rscale>  2 0.17585879E+03</rscale>
<asrwt>0</asrwt>
<pdfrwt beam="1">  1       21 0.13112706E-01 0.17585879E+03</pdfrwt>
<pdfrwt beam="2">  1       21 0.92531862E-01 0.17585879E+03</pdfrwt>
<totfact> 0.49713112E+04</totfact>
</mgrwt>
</event>
<event>
 4    1  0.4441180E+000  0.2599218E+03  0.7546771E-02  0.1107190E+00
         21   -1    0    0  503  502  0.00000000000E+00  0.00000000000E+00  0.31562167165E+03  0.31562167165E+03  0.00000000000E+00 0.  1.
         21   -1    0    0  501  503 -0.00000000000E+00 -0.00000000000E+00 -0.29723398187E+03  0.29723398187E+03  0.00000000000E+00 0. -1.
          6    1    1    2  501    0  0.54340251498E+02 -0.18621885984E+03 -0.15291048808E+03  0.30156416242E+03  0.17300000000E+03 0. -1.
         -6    1    1    2    0  502 -0.54340251498E+02  0.18621885984E+03  0.17129817785E+03  0.31129149110E+03  0.17300000000E+03 0.  1.
<mgrwt>
<rscale>  2 0.25992177E+03</rscale>
<asrwt>0</asrwt>
<pdfrwt beam="1">  1       21 0.48557180E-01 0.25992177E+03</pdfrwt>
<pdfrwt beam="2">  1       21 0.45728305E-01 0.25992177E+03</pdfrwt>
<totfact> 0.17898477E+04</totfact>
</mgrwt>
</event>
<event>
 4    1  0.4441180E+000  0.1753745E+03  0.7546771E-02  0.1172356E+00
         21   -1    0    0  501  502  0.00000000000E+00  0.00000000000E+00  0.16834654890E+04  0.16834654890E+04  0.00000000000E+00 0.  1.
         21   -1    0    0  502  503 -0.00000000000E+00 -0.00000000000E+00 -0.18365633586E+02  0.18365633586E+02  0.00000000000E+00 0.  1.
          6    1    1    2  501    0  0.25089691514E+02  0.14060942012E+02  0.89408838913E+03  0.91112581474E+03  0.17300000000E+03 0.  1.
         -6    1    1    2    0  503 -0.25089691514E+02 -0.14060942012E+02  0.77101146625E+03  0.79070530781E+03  0.17300000000E+03 0.  1.
<mgrwt>
<rscale>  2 0.17537446E+03</rscale>
<asrwt>0</asrwt>
<pdfrwt beam="1">  1       21 0.25899457E+00 0.17537446E+03</pdfrwt>
<pdfrwt beam="2">  1       21 0.28254834E-02 0.17537446E+03</pdfrwt>
<totfact> 0.41748813E+04</totfact>
</mgrwt>
</event>
<event>
 4    1  0.4441180E+000  0.2324700E+03  0.7546771E-02  0.1124913E+00
         21   -1    0    0  501  502  0.00000000000E+00  0.00000000000E+00  0.10720378916E+04  0.10720378916E+04  0.00000000000E+00 0. -1.
         21   -1    0    0  502  503 -0.00000000000E+00 -0.00000000000E+00 -0.52734285553E+02  0.52734285553E+02  0.00000000000E+00 0. -1.
          6    1    1    2  501    0  0.33317482332E+02 -0.15166818502E+03  0.39160409259E+03  0.45540757384E+03  0.17300000000E+03 0. -1.
         -6    1    1    2    0  503 -0.33317482332E+02  0.15166818502E+03  0.62769951345E+03  0.66936460330E+03  0.17300000000E+03 0. -1.
<mgrwt>
<rscale>  2 0.23246998E+03</rscale>
<asrwt>0</asrwt>
<pdfrwt beam="1">  1       21 0.16492889E+00 0.23246998E+03</pdfrwt>
<pdfrwt beam="2">  1       21 0.81129678E-02 0.23246998E+03</pdfrwt>
<totfact> 0.26477716E+04</totfact>
</mgrwt>
</event>
<event>
 4    1  0.4441180E+000  0.2151763E+03  0.7546771E-02  0.1137531E+00
         21   -1    0    0  501  502  0.00000000000E+00  0.00000000000E+00  0.22901206977E+03  0.22901206977E+03  0.00000000000E+00 0. -1.
         21   -1    0    0  502  503 -0.00000000000E+00 -0.00000000000E+00 -0.20271049147E+03  0.20271049147E+03  0.00000000000E+00 0. -1.
          6    1    1    2  501    0  0.46033306567E+02 -0.11938491076E+03  0.24231524614E+02  0.21653634572E+03  0.17300000000E+03 0. -1.
         -6    1    1    2    0  503 -0.46033306567E+02  0.11938491076E+03  0.20700536914E+01  0.21518621553E+03  0.17300000000E+03 0. -1.
<mgrwt>
<rscale>  2 0.21517626E+03</rscale>
<asrwt>0</asrwt>
<pdfrwt beam="1">  1       21 0.35232626E-01 0.21517626E+03</pdfrwt>
<pdfrwt beam="2">  1       21 0.31186229E-01 0.21517626E+03</pdfrwt>
<totfact> 0.75988502E+04</totfact>
</mgrwt>
</event>
<event>
 4    1  0.4441180E+000  0.1813442E+03  0.7546771E-02  0.1166508E+00
         21   -1    0    0  501  502  0.00000000000E+00  0.00000000000E+00  0.14277696769E+04  0.14277696769E+04  0.00000000000E+00 0. -1.
         21   -1    0    0  502  503 -0.00000000000E+00 -0.00000000000E+00 -0.25343877448E+02  0.25343877448E+02  0.00000000000E+00 0.  1.
          6    1    1    2  501    0  0.33570364628E+01 -0.54271834644E+02  0.92060915014E+03  0.93830001015E+03  0.17300000000E+03 0. -1.
         -6    1    1    2    0  503 -0.33570364628E+01  0.54271834644E+02  0.48181664926E+03  0.51481354415E+03  0.17300000000E+03 0.  1.
<mgrwt>
<rscale>  2 0.18134415E+03</rscale>
<asrwt>0</asrwt>
<pdfrwt beam="1">  1       21 0.21965681E+00 0.18134415E+03</pdfrwt>
<pdfrwt beam="2">  1       21 0.38990592E-02 0.18134415E+03</pdfrwt>
<totfact> 0.41685212E+04</totfact>
</mgrwt>
</event>
<event>
 4    1  0.4441180E+000  0.2632689E+03  0.7546771E-02  0.1105195E+00
         21   -1    0    0  501  502  0.00000000000E+00  0.00000000000E+00  0.89744116925E+02  0.89744116925E+02  0.00000000000E+00 0. -1.
         21   -1    0    0  502  503 -0.00000000000E+00 -0.00000000000E+00 -0.96126304065E+03  0.96126304065E+03  0.00000000000E+00 0.  1.
          6    1    1    2  501    0 -0.12137594637E+03  0.15700124096E+03 -0.20277415184E+03  0.33230688629E+03  0.17300000000E+03 0. -1.
         -6    1    1    2    0  503  0.12137594637E+03 -0.15700124096E+03 -0.66874477189E+03  0.71870027129E+03  0.17300000000E+03 0.  1.
<mgrwt>
<rscale>  2 0.26326889E+03</rscale>
<asrwt>0</asrwt>
<pdfrwt beam="1">  1       21 0.13806787E-01 0.26326889E+03</pdfrwt>
<pdfrwt beam="2">  1       21 0.14788662E+00 0.26326889E+03</pdfrwt>
<totfact> 0.13529900E+04</totfact>
</mgrwt>
</event>
<event>
 4    1  0.4441180E+000  0.2317388E+03  0.7546771E-02  0.1125422E+00
         21   -1    0    0  501  502  0.00000000000E+00  0.00000000000E+00  0.71802274487E+03  0.71802274487E+03  0.00000000000E+00 0. -1.
         21   -1    0    0  502  503 -0.00000000000E+00 -0.00000000000E+00 -0.91334951441E+02  0.91334951441E+02  0.00000000000E+00 0. -1.
          6    1    1    2  501    0  0.14152799694E+03 -0.61185910019E+02  0.48556595250E+03  0.53803083901E+03  0.17300000000E+03 0. -1.
         -6    1    1    2    0  503 -0.14152799694E+03  0.61185910019E+02  0.14112184093E+03  0.27132685730E+03  0.17300000000E+03 0. -1.
<mgrwt>
<rscale>  2 0.23173884E+03</rscale>
<asrwt>0</asrwt>
<pdfrwt beam="1">  1       21 0.11046503E+00 0.23173884E+03</pdfrwt>
<pdfrwt beam="2">  1       21 0.14051531E-01 0.23173884E+03</pdfrwt>
<totfact> 0.27936666E+04</totfact>
</mgrwt>
</event>
<event>
 4    1  0.4441180E+000  0.2196100E+03  0.7546771E-02  0.1134174E+00
         21   -1    0    0  503  502  0.00000000000E+00  0.00000000000E+00  0.13038225241E+04  0.13038225241E+04  0.00000000000E+00 0.  1.
         21   -1    0    0  501  503 -0.00000000000E+00 -0.00000000000E+00 -0.43027197758E+02  0.43027197758E+02  0.00000000000E+00 0. -1.
          6    1    1    2  501    0 -0.12089376680E+03 -0.60698087273E+02  0.37814791007E+03  0.43729212494E+03  0.17300000000E+03 0. -1.
         -6    1    1    2    0  502  0.12089376680E+03  0.60698087273E+02  0.88264741628E+03  0.90955759692E+03  0.17300000000E+03 0.  1.
<mgrwt>
<rscale>  2 0.21961002E+03</rscale>
<asrwt>0</asrwt>
<pdfrwt beam="1">  1       21 0.20058805E+00 0.21961002E+03</pdfrwt>
<pdfrwt beam="2">  1       21 0.66195699E-02 0.21961002E+03</pdfrwt>
<totfact> 0.21741859E+04</totfact>
</mgrwt>
</event>
<event>
 4    1  0.4441180E+000  0.2162844E+03  0.7546771E-02  0.1136684E+00
         21   -1    0    0  503  502  0.00000000000E+00  0.00000000000E+00  0.42122694207E+02  0.42122694207E+02  0.00000000000E+00 0.  1.
         21   -1    0    0  501  503 -0.00000000000E+00 -0.00000000000E+00 -0.13677210512E+04  0.13677210512E+04  0.00000000000E+00 0. -1.
          6    1    1    2  501    0 -0.10566956964E+03  0.75391507019E+02 -0.96847542724E+03  0.99233239917E+03  0.17300000000E+03 0. -1.
         -6    1    1    2    0  502  0.10566956964E+03 -0.75391507019E+02 -0.35712292974E+03  0.41751134622E+03  0.17300000000E+03 0.  1.
<mgrwt>
<rscale>  2 0.21628439E+03</rscale>
<asrwt>0</asrwt>
<pdfrwt beam="1">  1       21 0.64804149E-02 0.21628439E+03</pdfrwt>
<pdfrwt beam="2">  1       21 0.21041861E+00 0.21628439E+03</pdfrwt>
<totfact> 0.19572652E+04</totfact>
</mgrwt>
</event>
<event>
 4    1  0.4441180E+000  0.1960697E+03  0.7546771E-02  0.1153098E+00
         21   -1    0    0  503  502  0.00000000000E+00  0.00000000000E+00  0.12053577642E+04  0.12053577642E+04  0.00000000000E+00 0.  1.
         21   -1    0    0  501  503 -0.00000000000E+00 -0.00000000000E+00 -0.32730919290E+02  0.32730919290E+02  0.00000000000E+00 0.  1.
          6    1    1    2  501    0 -0.84978676604E+02 -0.35957496198E+02  0.68531968855E+03  0.71281581950E+03  0.17300000000E+03 0.  1.
         -6    1    1    2    0  502  0.84978676604E+02  0.35957496198E+02  0.48730715638E+03  0.52527286401E+03  0.17300000000E+03 0.  1.
<mgrwt>
<rscale>  2 0.19606967E+03</rscale>
<asrwt>0</asrwt>
<pdfrwt beam="1">  1       21 0.18543962E+00 0.19606967E+03</pdfrwt>
<pdfrwt beam="2">  1       21 0.50355270E-02 0.19606967E+03</pdfrwt>
<totfact> 0.44347308E+04</totfact>
</mgrwt>
</event>
<event>
 4    1  0.4441180E+000  0.1864808E+03  0.7546771E-02  0.1161674E+00
         21   -1    0    0  503  502  0.00000000000E+00  0.00000000000E+00  0.46765631148E+03  0.46765631148E+03  0.00000000000E+00 0.  1.
         21   -1    0    0  501  503 -0.00000000000E+00 -0.00000000000E+00 -0.93509906804E+02  0.93509906804E+02  0.00000000000E+00 0.  1.
          6    1    1    2  501    0 -0.24921404354E+01 -0.69569290826E+02  0.60100070246E+02  0.19592630103E+03  0.17300000000E+03 0.  1.
         -6    1    1    2    0  502  0.24921404354E+01  0.69569290826E+02  0.31404633442E+03  0.36523991725E+03  0.17300000000E+03 0.  1.
<mgrwt>
<rscale>  2 0.18648082E+03</rscale>
<asrwt>0</asrwt>
<pdfrwt beam="1">  1       21 0.71947124E-01 0.18648082E+03</pdfrwt>
<pdfrwt beam="2">  1       21 0.14386140E-01 0.18648082E+03</pdfrwt>
<totfact> 0.74002784E+04</totfact>
</mgrwt>
</event>
<event>
 4    1  0.4441180E+000  0.2270641E+03  0.7546771E-02  0.1128723E+00
         21   -1    0    0  501  502  0.00000000000E+00  0.00000000000E+00  0.27613790267E+03  0.27613790267E+03  0.00000000000E+00 0.  1.
         21   -1    0    0  502  503 -0.00000000000E+00 -0.00000000000E+00 -0.20410243222E+03  0.20410243222E+03  0.00000000000E+00 0.  1.
          6    1    1    2  501    0  0.13941710897E+03  0.46818512198E+02  0.10610947218E+03  0.25063384337E+03  0.17300000000E+03 0.  1.
         -6    1    1    2    0  503 -0.13941710897E+03 -0.46818512198E+02 -0.34074001729E+02  0.22960649153E+03  0.17300000000E+03 0.  1.
<mgrwt>
<rscale>  2 0.22706410E+03</rscale>
<asrwt>0</asrwt>
<pdfrwt beam="1">  1       21 0.42482755E-01 0.22706410E+03</pdfrwt>
<pdfrwt beam="2">  1       21 0.31400374E-01 0.22706410E+03</pdfrwt>
<totfact> 0.51137962E+04</totfact>
</mgrwt>
</event>
<event>
 4    1  0.4441180E+000  0.1738985E+03  0.7546771E-02  0.1173842E+00
         21   -1    0    0  503  502  0.00000000000E+00  0.00000000000E+00  0.76441455540E+03  0.76441455540E+03  0.00000000000E+00 0.  1.
         21   -1    0    0  501  503 -0.00000000000E+00 -0.00000000000E+00 -0.51897303801E+02  0.51897303801E+02  0.00000000000E+00 0.  1.
          6    1    1    2  501    0 -0.11336339696E+02  0.13534507805E+02  0.15725850073E+03  0.23445880566E+03  0.17300000000E+03 0.  1.
         -6    1    1    2    0  502  0.11336339696E+02 -0.13534507805E+02  0.55525875087E+03  0.58185305354E+03  0.17300000000E+03 0.  1.
<mgrwt>
<rscale>  2 0.17389852E+03</rscale>
<asrwt>0</asrwt>
<pdfrwt beam="1">  1       21 0.11760223E+00 0.17389852E+03</pdfrwt>
<pdfrwt beam="2">  1       21 0.79842011E-02 0.17389852E+03</pdfrwt>
<totfact> 0.67450491E+04</totfact>
</mgrwt>
</event>
<event>
 4    1  0.4441180E+000  0.1762240E+03  0.7546771E-02  0.1171508E+00
         21   -1    0    0  503  502  0.00000000000E+00  0.00000000000E+00  0.43756766927E+03  0.43756766927E+03  0.00000000000E+00 0. -1.
         21   -1    0    0  501  503 -0.00000000000E+00 -0.00000000000E+00 -0.89060782588E+02  0.89060782588E+02  0.00000000000E+00 0. -1.
          6    1    1    2  501    0  0.33429872555E+02 -0.28898188354E+01  0.55583776710E+02  0.18478220603E+03  0.17300000000E+03 0. -1.
         -6    1    1    2    0  502 -0.33429872555E+02  0.28898188354E+01  0.29292310998E+03  0.34184624583E+03  0.17300000000E+03 0. -1.
<mgrwt>
<rscale>  2 0.17622403E+03</rscale>
<asrwt>0</asrwt>
<pdfrwt beam="1">  1       21 0.67318102E-01 0.17622403E+03</pdfrwt>
<pdfrwt beam="2">  1       21 0.13701659E-01 0.17622403E+03</pdfrwt>
<totfact> 0.93951907E+04</totfact>
</mgrwt>
</event>
<event>
 4    1  0.4441180E+000  0.1866593E+03  0.7546771E-02  0.1161509E+00
         21   -1    0    0  503  502  0.00000000000E+00  0.00000000000E+00  0.66268727798E+02  0.66268727798E+02  0.00000000000E+00 0.  1.
         21   -1    0    0  501  503 -0.00000000000E+00 -0.00000000000E+00 -0.66261593347E+03  0.66261593347E+03  0.00000000000E+00 0. -1.
          6    1    1    2  501    0  0.45525979271E+02 -0.53292387378E+02 -0.46379779734E+03  0.49995008766E+03  0.17300000000E+03 0. -1.
         -6    1    1    2    0  502 -0.45525979271E+02  0.53292387378E+02 -0.13254940834E+03  0.22893457360E+03  0.17300000000E+03 0.  1.
<mgrwt>
<rscale>  2 0.18665930E+03</rscale>
<asrwt>0</asrwt>
<pdfrwt beam="1">  1       21 0.10195189E-01 0.18665930E+03</pdfrwt>
<pdfrwt beam="2">  1       21 0.10194092E+00 0.18665930E+03</pdfrwt>
<totfact> 0.61671195E+04</totfact>
</mgrwt>
</event>
<event>
 4    1  0.4441180E+000  0.1927943E+03  0.7546771E-02  0.1155965E+00
         21   -1    0    0  503  502  0.00000000000E+00  0.00000000000E+00  0.10430368034E+03  0.10430368034E+03  0.00000000000E+00 0.  1.
         21   -1    0    0  501  503 -0.00000000000E+00 -0.00000000000E+00 -0.42263404193E+03  0.42263404193E+03  0.00000000000E+00 0.  1.
          6    1    1    2  501    0 -0.85055903853E+02  0.24790508723E+01 -0.26349753501E+03  0.32649747844E+03  0.17300000000E+03 0. -1.
         -6    1    1    2    0  502  0.85055903853E+02 -0.24790508723E+01 -0.54832826583E+02  0.20044024382E+03  0.17300000000E+03 0. -1.
<mgrwt>
<rscale>  2 0.19279433E+03</rscale>
<asrwt>0</asrwt>
<pdfrwt beam="1">  1       21 0.16046720E-01 0.19279433E+03</pdfrwt>
<pdfrwt beam="2">  1       21 0.65020622E-01 0.19279433E+03</pdfrwt>
<totfact> 0.75538529E+04</totfact>
</mgrwt>
</event>
<event>
 4    1  0.4441180E+000  0.1779276E+03  0.7546771E-02  0.1169824E+00
         21   -1    0    0  503  502  0.00000000000E+00  0.00000000000E+00  0.75914410103E+03  0.75914410103E+03  0.00000000000E+00 0.  1.
         21   -1    0    0  501  503 -0.00000000000E+00 -0.00000000000E+00 -0.15722902356E+03  0.15722902356E+03  0.00000000000E+00 0.  1.
          6    1    1    2  501    0  0.13998294480E+02 -0.39157314147E+02 -0.91792956325E+02  0.20021037518E+03  0.17300000000E+03 0.  1.
         -6    1    1    2    0  502 -0.13998294480E+02  0.39157314147E+02  0.69370803379E+03  0.71616274941E+03  0.17300000000E+03 0.  1.
<mgrwt>
<rscale>  2 0.17792765E+03</rscale>
<asrwt>0</asrwt>
<pdfrwt beam="1">  1       21 0.11679140E+00 0.17792765E+03</pdfrwt>
<pdfrwt beam="2">  1       21 0.24189081E-01 0.17792765E+03</pdfrwt>
<totfact> 0.92055924E+03</totfact>
</mgrwt>
</event>
<event>
 4    1  0.4441180E+000  0.3158442E+03  0.7546771E-02  0.1077578E+00
         21   -1    0    0  503  502  0.00000000000E+00  0.00000000000E+00  0.93669722647E+03  0.93669722647E+03  0.00000000000E+00 0. -1.
         21   -1    0    0  501  503 -0.00000000000E+00 -0.00000000000E+00 -0.11354364296E+03  0.11354364296E+03  0.00000000000E+00 0. -1.
          6    1    1    2  501    0 -0.18717259495E+03  0.18653416508E+03  0.28077956409E+03  0.42260470733E+03  0.17300000000E+03 0. -1.
         -6    1    1    2    0  502  0.18717259495E+03 -0.18653416508E+03  0.54237401942E+03  0.62763616210E+03  0.17300000000E+03 0. -1.
<mgrwt>
<rscale>  2 0.31584423E+03</rscale>
<asrwt>0</asrwt>
<pdfrwt beam="1">  1       21 0.14410726E+00 0.31584423E+03</pdfrwt>
<pdfrwt beam="2">  1       21 0.17468253E-01 0.31584423E+03</pdfrwt>
<totfact> 0.91476193E+03</totfact>
</mgrwt>
</event>
<event>
 4    1  0.4441180E+000  0.2150784E+03  0.7546771E-02  0.1137606E+00
         21   -1    0    0  501  502  0.00000000000E+00  0.00000000000E+00  0.13921482827E+03  0.13921482827E+03  0.00000000000E+00 0.  1.
         21   -1    0    0  502  503 -0.00000000000E+00 -0.00000000000E+00 -0.44422312913E+03  0.44422312913E+03  0.00000000000E+00 0.  1.
          6    1    1    2  501    0 -0.73828306675E+02 -0.10430295770E+03 -0.60650905680E+01  0.21516391699E+03  0.17300000000E+03 0.  1.
         -6    1    1    2    0  503  0.73828306675E+02  0.10430295770E+03 -0.29894321030E+03  0.36827404040E+03  0.17300000000E+03 0.  1.
<mgrwt>
<rscale>  2 0.21507842E+03</rscale>
<asrwt>0</asrwt>
<pdfrwt beam="1">  1       21 0.21417666E-01 0.21507842E+03</pdfrwt>
<pdfrwt beam="2">  1       21 0.68342020E-01 0.21507842E+03</pdfrwt>
<totfact> 0.39203182E+04</totfact>
</mgrwt>
</event>
<event>
 4    1  0.4441180E+000  0.3539811E+03  0.7546771E-02  0.1060993E+00
         21   -1    0    0  501  502  0.00000000000E+00  0.00000000000E+00  0.68550257832E+03  0.68550257832E+03  0.00000000000E+00 0. -1.
         21   -1    0    0  502  503 -0.00000000000E+00 -0.00000000000E+00 -0.19382701472E+03  0.19382701472E+03  0.00000000000E+00 0.  1.
          6    1    1    2  501    0  0.54919734283E+02  0.30390364858E+03  0.35075630276E+03  0.49832979919E+03  0.17300000000E+03 0. -1.
         -6    1    1    2    0  503 -0.54919734283E+02 -0.30390364858E+03  0.14091926085E+03  0.38099979385E+03  0.17300000000E+03 0.  1.
<mgrwt>
<rscale>  2 0.35398108E+03</rscale>
<asrwt>0</asrwt>
<pdfrwt beam="1">  1       21 0.10546193E+00 0.35398108E+03</pdfrwt>
<pdfrwt beam="2">  1       21 0.29819541E-01 0.35398108E+03</pdfrwt>
<totfact> 0.71265036E+03</totfact>
</mgrwt>
</event>
<event>
 4    1  0.4441180E+000  0.2124317E+03  0.7546771E-02  0.1139655E+00
         21   -1    0    0  501  502  0.00000000000E+00  0.00000000000E+00  0.59867012938E+03  0.59867012938E+03  0.00000000000E+00 0.  1.
         21   -1    0    0  502  503 -0.00000000000E+00 -0.00000000000E+00 -0.12322116897E+03  0.12322116897E+03  0.00000000000E+00 0. -1.
          6    1    1    2  501    0 -0.90845029770E+02  0.83338996830E+02  0.46263210749E+03  0.50907334904E+03  0.17300000000E+03 0.  1.
         -6    1    1    2    0  503  0.90845029770E+02 -0.83338996830E+02  0.12816852925E+02  0.21281794930E+03  0.17300000000E+03 0. -1.
<mgrwt>
<rscale>  2 0.21243165E+03</rscale>
<asrwt>0</asrwt>
<pdfrwt beam="1">  1       21 0.92103095E-01 0.21243165E+03</pdfrwt>
<pdfrwt beam="2">  1       21 0.18957103E-01 0.21243165E+03</pdfrwt>
<totfact> 0.25107687E+04</totfact>
</mgrwt>
</event>
<event>
 4    1  0.4441180E+000  0.2018383E+03  0.7546771E-02  0.1148197E+00
         21   -1    0    0  503  502  0.00000000000E+00  0.00000000000E+00  0.24123092851E+03  0.24123092851E+03  0.00000000000E+00 0.  1.
         21   -1    0    0  501  503 -0.00000000000E+00 -0.00000000000E+00 -0.17877316657E+03  0.17877316657E+03  0.00000000000E+00 0.  1.
          6    1    1    2  501    0  0.91145140786E+02 -0.50022549307E+02 -0.18176612357E+02  0.20265507979E+03  0.17300000000E+03 0.  1.
         -6    1    1    2    0  502 -0.91145140786E+02  0.50022549307E+02  0.80634374304E+02  0.21734901529E+03  0.17300000000E+03 0.  1.
<mgrwt>
<rscale>  2 0.20183828E+03</rscale>
<asrwt>0</asrwt>
<pdfrwt beam="1">  1       21 0.37112451E-01 0.20183828E+03</pdfrwt>
<pdfrwt beam="2">  1       21 0.27503564E-01 0.20183828E+03</pdfrwt>
<totfact> 0.87973463E+04</totfact>
</mgrwt>
</event>
<event>
 4    1  0.4441180E+000  0.1742775E+03  0.7546771E-02  0.1173459E+00
         21   -1    0    0  501  502  0.00000000000E+00  0.00000000000E+00  0.24572119082E+03  0.24572119082E+03  0.00000000000E+00 0.  1.
         21   -1    0    0  502  503 -0.00000000000E+00 -0.00000000000E+00 -0.13132516884E+03  0.13132516884E+03  0.00000000000E+00 0.  1.
          6    1    1    2  501    0 -0.15217208135E+02 -0.14563580547E+02  0.10290373276E+03  0.20239031478E+03  0.17300000000E+03 0.  1.
         -6    1    1    2    0  503  0.15217208135E+02  0.14563580547E+02  0.11492289227E+02  0.17465604488E+03  0.17300000000E+03 0.  1.
<mgrwt>
<rscale>  2 0.17427754E+03</rscale>
<asrwt>0</asrwt>
<pdfrwt beam="1">  1       21 0.37803260E-01 0.17427754E+03</pdfrwt>
<pdfrwt beam="2">  1       21 0.20203872E-01 0.17427754E+03</pdfrwt>
<totfact> 0.15375742E+05</totfact>
</mgrwt>
</event>
<event>
 4    1  0.4441180E+000  0.2061231E+03  0.7546771E-02  0.1144673E+00
         21   -1    0    0  501  502  0.00000000000E+00  0.00000000000E+00  0.13034941348E+04  0.13034941348E+04  0.00000000000E+00 0. -1.
         21   -1    0    0  502  503 -0.00000000000E+00 -0.00000000000E+00 -0.42235388629E+02  0.42235388629E+02  0.00000000000E+00 0. -1.
          6    1    1    2  501    0  0.98749647849E+02  0.52974012018E+02  0.95210502229E+03  0.97416154326E+03  0.17300000000E+03 0. -1.
         -6    1    1    2    0  503 -0.98749647849E+02 -0.52974012018E+02  0.30915372390E+03  0.37156798019E+03  0.17300000000E+03 0. -1.
<mgrwt>
<rscale>  2 0.20612312E+03</rscale>
<asrwt>0</asrwt>
<pdfrwt beam="1">  1       21 0.20053753E+00 0.20612312E+03</pdfrwt>
<pdfrwt beam="2">  1       21 0.64977531E-02 0.20612312E+03</pdfrwt>
<totfact> 0.22681547E+04</totfact>
</mgrwt>
</event>
<event>
 4    1  0.4441180E+000  0.1859587E+03  0.7546771E-02  0.1162158E+00
         21   -1    0    0  501  502  0.00000000000E+00  0.00000000000E+00  0.17679678379E+04  0.17679678379E+04  0.00000000000E+00 0.  1.
         21   -1    0    0  502  503 -0.00000000000E+00 -0.00000000000E+00 -0.58793315121E+02  0.58793315121E+02  0.00000000000E+00 0.  1.
          6    1    1    2  501    0 -0.25382224923E+02  0.63304001653E+02  0.16007229193E+04  0.16114882930E+04  0.17300000000E+03 0.  1.
         -6    1    1    2    0  503  0.25382224923E+02 -0.63304001653E+02  0.10845160341E+03  0.21527285999E+03  0.17300000000E+03 0.  1.
<mgrwt>
<rscale>  2 0.18595874E+03</rscale>
<asrwt>0</asrwt>
<pdfrwt beam="1">  1       21 0.27199501E+00 0.18595874E+03</pdfrwt>
<pdfrwt beam="2">  1       21 0.90451267E-02 0.18595874E+03</pdfrwt>
<totfact> 0.48289340E+03</totfact>
</mgrwt>
</event>
<event>
 4    1  0.4441180E+000  0.2192154E+03  0.7546771E-02  0.1134469E+00
         21   -1    0    0  501  502  0.00000000000E+00  0.00000000000E+00  0.11234563901E+04  0.11234563901E+04  0.00000000000E+00 0. -1.
         21   -1    0    0  502  503 -0.00000000000E+00 -0.00000000000E+00 -0.42817008695E+02  0.42817008695E+02  0.00000000000E+00 0. -1.
          6    1    1    2  501    0  0.11583688535E+03  0.68616271815E+02  0.52196339324E+03  0.56612821927E+03  0.17300000000E+03 0. -1.
         -6    1    1    2    0  503 -0.11583688535E+03 -0.68616271815E+02  0.55867598821E+03  0.60014517957E+03  0.17300000000E+03 0. -1.
<mgrwt>
<rscale>  2 0.21921537E+03</rscale>
<asrwt>0</asrwt>
<pdfrwt beam="1">  1       21 0.17283942E+00 0.21921537E+03</pdfrwt>
<pdfrwt beam="2">  1       21 0.65872330E-02 0.21921537E+03</pdfrwt>
<totfact> 0.33672984E+04</totfact>
</mgrwt>
</event>
<event>
 4    1  0.4441180E+000  0.2018638E+03  0.7546771E-02  0.1148176E+00
         21   -1    0    0  503  502  0.00000000000E+00  0.00000000000E+00  0.61721065526E+03  0.61721065526E+03  0.00000000000E+00 0.  1.
         21   -1    0    0  501  503 -0.00000000000E+00 -0.00000000000E+00 -0.16435357720E+03  0.16435357720E+03  0.00000000000E+00 0.  1.
          6    1    1    2  501    0 -0.31812680298E+00 -0.10401866150E+03 -0.75840306211E+02  0.21564029121E+03  0.17300000000E+03 0.  1.
         -6    1    1    2    0  502  0.31812680298E+00  0.10401866150E+03  0.52869738427E+03  0.56592394125E+03  0.17300000000E+03 0.  1.
<mgrwt>
<rscale>  2 0.20186377E+03</rscale>
<asrwt>0</asrwt>
<pdfrwt beam="1">  1       21 0.94955485E-01 0.20186377E+03</pdfrwt>
<pdfrwt beam="2">  1       21 0.25285166E-01 0.20186377E+03</pdfrwt>
<totfact> 0.13661592E+04</totfact>
</mgrwt>
</event>
<event>
 4    1  0.4441180E+000  0.1759642E+03  0.7546771E-02  0.1171767E+00
         21   -1    0    0  503  502  0.00000000000E+00  0.00000000000E+00  0.86579445182E+03  0.86579445182E+03  0.00000000000E+00 0.  1.
         21   -1    0    0  501  503 -0.00000000000E+00 -0.00000000000E+00 -0.38853824954E+02  0.38853824954E+02  0.00000000000E+00 0. -1.
          6    1    1    2  501    0 -0.30287199351E+02  0.10820439086E+02  0.28589373720E+03  0.33570615919E+03  0.17300000000E+03 0. -1.
         -6    1    1    2    0  502  0.30287199351E+02 -0.10820439086E+02  0.54104688967E+03  0.56894211759E+03  0.17300000000E+03 0.  1.
<mgrwt>
<rscale>  2 0.17596419E+03</rscale>
<asrwt>0</asrwt>
<pdfrwt beam="1">  1       21 0.13319913E+00 0.17596419E+03</pdfrwt>
<pdfrwt beam="2">  1       21 0.59775122E-02 0.17596419E+03</pdfrwt>
<totfact> 0.81312355E+04</totfact>
</mgrwt>
</event>
<event>
 4    1  0.4441180E+000  0.1802754E+03  0.7546771E-02  0.1167537E+00
         21   -1    0    0  503  502  0.00000000000E+00  0.00000000000E+00  0.10664863062E+03  0.10664863062E+03  0.00000000000E+00 0.  1.
         21   -1    0    0  501  503 -0.00000000000E+00 -0.00000000000E+00 -0.42556223161E+03  0.42556223161E+03  0.00000000000E+00 0.  1.
          6    1    1    2  501    0  0.23001636401E+02 -0.45178978708E+02 -0.30125169547E+03  0.35107235639E+03  0.17300000000E+03 0.  1.
         -6    1    1    2    0  502 -0.23001636401E+02  0.45178978708E+02 -0.17661905512E+02  0.18113850585E+03  0.17300000000E+03 0.  1.
<mgrwt>
<rscale>  2 0.18027539E+03</rscale>
<asrwt>0</asrwt>
<pdfrwt beam="1">  1       21 0.16407482E-01 0.18027539E+03</pdfrwt>
<pdfrwt beam="2">  1       21 0.65471113E-01 0.18027539E+03</pdfrwt>
<totfact> 0.71819879E+04</totfact>
</mgrwt>
</event>
<event>
 4    1  0.4441180E+000  0.2046013E+03  0.7546771E-02  0.1145914E+00
         21   -1    0    0  501  502  0.00000000000E+00  0.00000000000E+00  0.54628743088E+03  0.54628743088E+03  0.00000000000E+00 0.  1.
         21   -1    0    0  502  503 -0.00000000000E+00 -0.00000000000E+00 -0.81606631579E+02  0.81606631579E+02  0.00000000000E+00 0.  1.
          6    1    1    2  501    0 -0.97008068106E+02 -0.50220642972E+02  0.30987357351E+03  0.37132641950E+03  0.17300000000E+03 0.  1.
         -6    1    1    2    0  503  0.97008068106E+02  0.50220642972E+02  0.15480722580E+03  0.25656764297E+03  0.17300000000E+03 0.  1.
<mgrwt>
<rscale>  2 0.20460127E+03</rscale>
<asrwt>0</asrwt>
<pdfrwt beam="1">  1       21 0.84044218E-01 0.20460127E+03</pdfrwt>
<pdfrwt beam="2">  1       21 0.12554867E-01 0.20460127E+03</pdfrwt>
<totfact> 0.66170872E+04</totfact>
</mgrwt>
</event>
<event>
 4    1  0.4441180E+000  0.2115037E+03  0.7546771E-02  0.1140381E+00
         21   -1    0    0  501  502  0.00000000000E+00  0.00000000000E+00  0.38280017603E+03  0.38280017603E+03  0.00000000000E+00 0. -1.
         21   -1    0    0  502  503 -0.00000000000E+00 -0.00000000000E+00 -0.14152149732E+03  0.14152149732E+03  0.00000000000E+00 0.  1.
          6    1    1    2  501    0  0.40077603095E+02 -0.11488509028E+03  0.23007821577E+03  0.31252165302E+03  0.17300000000E+03 0. -1.
         -6    1    1    2    0  503 -0.40077603095E+02  0.11488509028E+03  0.11200462939E+02  0.21180002032E+03  0.17300000000E+03 0.  1.
<mgrwt>
<rscale>  2 0.21150366E+03</rscale>
<asrwt>0</asrwt>
<pdfrwt beam="1">  1       21 0.58892334E-01 0.21150366E+03</pdfrwt>
<pdfrwt beam="2">  1       21 0.21772538E-01 0.21150366E+03</pdfrwt>
<totfact> 0.52609266E+04</totfact>
</mgrwt>
</event>
<event>
 4    1  0.4441180E+000  0.2435844E+03  0.7546771E-02  0.1117428E+00
         21   -1    0    0  503  502  0.00000000000E+00  0.00000000000E+00  0.48876854472E+03  0.48876854472E+03  0.00000000000E+00 0. -1.
         21   -1    0    0  501  503 -0.00000000000E+00 -0.00000000000E+00 -0.13492971061E+03  0.13492971061E+03  0.00000000000E+00 0. -1.
          6    1    1    2  501    0  0.16232009003E+03  0.55285929888E+02  0.78146338445E+02  0.25581281415E+03  0.17300000000E+03 0. -1.
         -6    1    1    2    0  502 -0.16232009003E+03 -0.55285929888E+02  0.27569249566E+03  0.36788544118E+03  0.17300000000E+03 0. -1.
<mgrwt>
<rscale>  2 0.24358437E+03</rscale>
<asrwt>0</asrwt>
<pdfrwt beam="1">  1       21 0.75195160E-01 0.24358437E+03</pdfrwt>
<pdfrwt beam="2">  1       21 0.20758417E-01 0.24358437E+03</pdfrwt>
<totfact> 0.33171663E+04</totfact>
</mgrwt>
</event>
<event>
 4    1  0.4441180E+000  0.1834056E+03  0.7546771E-02  0.1164547E+00
         21   -1    0    0  501  502  0.00000000000E+00  0.00000000000E+00  0.11683066519E+03  0.11683066519E+03  0.00000000000E+00 0.  1.
         21   -1    0    0  502  503 -0.00000000000E+00 -0.00000000000E+00 -0.34061881620E+03  0.34061881620E+03  0.00000000000E+00 0. -1.
          6    1    1    2  501    0  0.47328001086E+02  0.38323062978E+02 -0.21925794390E+02  0.18471149748E+03  0.17300000000E+03 0.  1.
         -6    1    1    2    0  503 -0.47328001086E+02 -0.38323062978E+02 -0.20186235662E+03  0.27273798390E+03  0.17300000000E+03 0. -1.
<mgrwt>
<rscale>  2 0.18340555E+03</rscale>
<asrwt>0</asrwt>
<pdfrwt beam="1">  1       21 0.17973949E-01 0.18340555E+03</pdfrwt>
<pdfrwt beam="2">  1       21 0.52402895E-01 0.18340555E+03</pdfrwt>
<totfact> 0.97575898E+04</totfact>
</mgrwt>
</event>
<event>
 4    1  0.4441180E+000  0.1858473E+03  0.7546771E-02  0.1162261E+00
         21   -1    0    0  503  502  0.00000000000E+00  0.00000000000E+00  0.27859242961E+04  0.27859242961E+04  0.00000000000E+00 0.  1.
         21   -1    0    0  501  503 -0.00000000000E+00 -0.00000000000E+00 -0.30781869657E+02  0.30781869657E+02  0.00000000000E+00 0.  1.
          6    1    1    2  501    0  0.18967167368E+02  0.65195622933E+02  0.28917920487E+03  0.34374966940E+03  0.17300000000E+03 0.  1.
         -6    1    1    2    0  502 -0.18967167368E+02 -0.65195622933E+02  0.24659632216E+04  0.24729564964E+04  0.17300000000E+03 0.  1.
<mgrwt>
<rscale>  2 0.18584731E+03</rscale>
<asrwt>0</asrwt>
<pdfrwt beam="1">  1       21 0.42860354E+00 0.18584731E+03</pdfrwt>
<pdfrwt beam="2">  1       21 0.47356744E-02 0.18584731E+03</pdfrwt>
<totfact> 0.17113311E+03</totfact>
</mgrwt>
</event>
<event>
 4    1  0.4441180E+000  0.2135635E+03  0.7546771E-02  0.1138775E+00
         21   -1    0    0  503  502  0.00000000000E+00  0.00000000000E+00  0.18370372070E+04  0.18370372070E+04  0.00000000000E+00 0.  1.
         21   -1    0    0  501  503 -0.00000000000E+00 -0.00000000000E+00 -0.34889765751E+02  0.34889765751E+02  0.00000000000E+00 0.  1.
          6    1    1    2  501    0  0.66678084434E+02 -0.10599254578E+03  0.39843757886E+03  0.45206403413E+03  0.17300000000E+03 0.  1.
         -6    1    1    2    0  502 -0.66678084434E+02  0.10599254578E+03  0.14037098624E+04  0.14198629386E+04  0.17300000000E+03 0.  1.
<mgrwt>
<rscale>  2 0.21356354E+03</rscale>
<asrwt>0</asrwt>
<pdfrwt beam="1">  1       21 0.28262103E+00 0.21356354E+03</pdfrwt>
<pdfrwt beam="2">  1       21 0.53676577E-02 0.21356354E+03</pdfrwt>
<totfact> 0.10037756E+04</totfact>
</mgrwt>
</event>
<event>
 4    1  0.4441180E+000  0.2650943E+03  0.7546771E-02  0.1104121E+00
         21   -1    0    0  501  502  0.00000000000E+00  0.00000000000E+00  0.17386201499E+04  0.17386201499E+04  0.00000000000E+00 0.  1.
         21   -1    0    0  502  503 -0.00000000000E+00 -0.00000000000E+00 -0.40749827180E+02  0.40749827180E+02  0.00000000000E+00 0. -1.
          6    1    1    2  501    0  0.19948758043E+03  0.23467385592E+02  0.76889246326E+03  0.81330844887E+03  0.17300000000E+03 0. -1.
         -6    1    1    2    0  503 -0.19948758043E+03 -0.23467385592E+02  0.92897785943E+03  0.96606152819E+03  0.17300000000E+03 0.  1.
<mgrwt>
<rscale>  2 0.26509435E+03</rscale>
<asrwt>0</asrwt>
<pdfrwt beam="1">  1       21 0.26747997E+00 0.26509435E+03</pdfrwt>
<pdfrwt beam="2">  1       21 0.62692055E-02 0.26509435E+03</pdfrwt>
<totfact> 0.90292057E+03</totfact>
</mgrwt>
</event>
<event>
 4    1  0.4441180E+000  0.1872534E+03  0.7546771E-02  0.1160962E+00
         21   -1    0    0  501  502  0.00000000000E+00  0.00000000000E+00  0.59938830999E+03  0.59938830999E+03  0.00000000000E+00 0.  1.
         21   -1    0    0  502  503 -0.00000000000E+00 -0.00000000000E+00 -0.79280239122E+02  0.79280239122E+02  0.00000000000E+00 0.  1.
          6    1    1    2  501    0 -0.52358083557E+02  0.48923175961E+02  0.43378489737E+03  0.47247559011E+03  0.17300000000E+03 0.  1.
         -6    1    1    2    0  503  0.52358083557E+02 -0.48923175961E+02  0.86323173494E+02  0.20619295900E+03  0.17300000000E+03 0.  1.
<mgrwt>
<rscale>  2 0.18725343E+03</rscale>
<asrwt>0</asrwt>
<pdfrwt beam="1">  1       21 0.92213583E-01 0.18725343E+03</pdfrwt>
<pdfrwt beam="2">  1       21 0.12196960E-01 0.18725343E+03</pdfrwt>
<totfact> 0.56742033E+04</totfact>
</mgrwt>
</event>
<event>
 4    1  0.4441180E+000  0.1799992E+03  0.7546771E-02  0.1167804E+00
         21   -1    0    0  503  502  0.00000000000E+00  0.00000000000E+00  0.17982193150E+04  0.17982193150E+04  0.00000000000E+00 0. -1.
         21   -1    0    0  501  503 -0.00000000000E+00 -0.00000000000E+00 -0.58815754529E+02  0.58815754529E+02  0.00000000000E+00 0. -1.
          6    1    1    2  501    0 -0.20208267955E+02 -0.45413006242E+02  0.96374767437E+02  0.20417593156E+03  0.17300000000E+03 0. -1.
         -6    1    1    2    0  502  0.20208267955E+02  0.45413006242E+02  0.16430287931E+04  0.16528591380E+04  0.17300000000E+03 0. -1.
<mgrwt>
<rscale>  2 0.17999921E+03</rscale>
<asrwt>0</asrwt>
<pdfrwt beam="1">  1       21 0.27664908E+00 0.17999921E+03</pdfrwt>
<pdfrwt beam="2">  1       21 0.90485790E-02 0.17999921E+03</pdfrwt>
<totfact> 0.45680724E+03</totfact>
</mgrwt>
</event>
<event>
 4    1  0.4441180E+000  0.3025883E+03  0.7546771E-02  0.1083954E+00
         21   -1    0    0  503  502  0.00000000000E+00  0.00000000000E+00  0.20781121911E+03  0.20781121911E+03  0.00000000000E+00 0.  1.
         21   -1    0    0  501  503 -0.00000000000E+00 -0.00000000000E+00 -0.44163377743E+03  0.44163377743E+03  0.00000000000E+00 0.  1.
          6    1    1    2  501    0  0.19560766741E+02 -0.24748344454E+03 -0.13269288209E+03  0.33040441867E+03  0.17300000000E+03 0.  1.
         -6    1    1    2    0  502 -0.19560766741E+02  0.24748344454E+03 -0.10112967623E+03  0.31904057788E+03  0.17300000000E+03 0.  1.
<mgrwt>
<rscale>  2 0.30258830E+03</rscale>
<asrwt>0</asrwt>
<pdfrwt beam="1">  1       21 0.31970956E-01 0.30258830E+03</pdfrwt>
<pdfrwt beam="2">  1       21 0.67943659E-01 0.30258830E+03</pdfrwt>
<totfact> 0.17609036E+04</totfact>
</mgrwt>
</event>
<event>
 4    1  0.4441180E+000  0.1877843E+03  0.7546771E-02  0.1160475E+00
         21   -1    0    0  503  502  0.00000000000E+00  0.00000000000E+00  0.36889160087E+02  0.36889160087E+02  0.00000000000E+00 0.  1.
         21   -1    0    0  501  503 -0.00000000000E+00 -0.00000000000E+00 -0.10117142480E+04  0.10117142480E+04  0.00000000000E+00 0.  1.
          6    1    1    2  501    0 -0.55094198814E+02 -0.47943320231E+02 -0.36428273259E+03  0.40983513998E+03  0.17300000000E+03 0.  1.
         -6    1    1    2    0  502  0.55094198814E+02  0.47943320231E+02 -0.61054235527E+03  0.63876826806E+03  0.17300000000E+03 0.  1.
<mgrwt>
<rscale>  2 0.18778427E+03</rscale>
<asrwt>0</asrwt>
<pdfrwt beam="1">  1       21 0.56752557E-02 0.18778427E+03</pdfrwt>
<pdfrwt beam="2">  1       21 0.15564834E+00 0.18778427E+03</pdfrwt>
<totfact> 0.58931641E+04</totfact>
</mgrwt>
</event>
<event>
 4    1  0.4441180E+000  0.2035142E+03  0.7546771E-02  0.1146808E+00
         21   -1    0    0  503  502  0.00000000000E+00  0.00000000000E+00  0.21363245616E+03  0.21363245616E+03  0.00000000000E+00 0. -1.
         21   -1    0    0  501  503 -0.00000000000E+00 -0.00000000000E+00 -0.41511256254E+03  0.41511256254E+03  0.00000000000E+00 0. -1.
          6    1    1    2  501    0 -0.36679199356E+02  0.10071570698E+03 -0.33024441383E+03  0.38791673097E+03  0.17300000000E+03 0. -1.
         -6    1    1    2    0  502  0.36679199356E+02 -0.10071570698E+03  0.12876430746E+03  0.24082828773E+03  0.17300000000E+03 0. -1.
<mgrwt>
<rscale>  2 0.20351417E+03</rscale>
<asrwt>0</asrwt>
<pdfrwt beam="1">  1       21 0.32866532E-01 0.20351417E+03</pdfrwt>
<pdfrwt beam="2">  1       21 0.63863471E-01 0.20351417E+03</pdfrwt>
<totfact> 0.20049755E+04</totfact>
</mgrwt>
</event>
<event>
 4    1  0.4441180E+000  0.1818837E+03  0.7546771E-02  0.1165992E+00
         21   -1    0    0  503  502  0.00000000000E+00  0.00000000000E+00  0.92595763743E+03  0.92595763743E+03  0.00000000000E+00 0.  1.
         21   -1    0    0  501  503 -0.00000000000E+00 -0.00000000000E+00 -0.64440098239E+02  0.64440098239E+02  0.00000000000E+00 0.  1.
          6    1    1    2  501    0 -0.41633649865E+02  0.37674014411E+02  0.10020543337E+03  0.20766035019E+03  0.17300000000E+03 0.  1.
         -6    1    1    2    0  502  0.41633649865E+02 -0.37674014411E+02  0.76131210582E+03  0.78273738548E+03  0.17300000000E+03 0.  1.
<mgrwt>
<rscale>  2 0.18188373E+03</rscale>
<asrwt>0</asrwt>
<pdfrwt beam="1">  1       21 0.14245501E+00 0.18188373E+03</pdfrwt>
<pdfrwt beam="2">  1       21 0.99138620E-02 0.18188373E+03</pdfrwt>
<totfact> 0.28373583E+04</totfact>
</mgrwt>
</event>
<event>
 4    1  0.4441180E+000  0.2837545E+03  0.7546771E-02  0.1093656E+00
         21   -1    0    0  503  502  0.00000000000E+00  0.00000000000E+00  0.43091755514E+03  0.43091755514E+03  0.00000000000E+00 0. -1.
         21   -1    0    0  501  503 -0.00000000000E+00 -0.00000000000E+00 -0.20242368063E+03  0.20242368063E+03  0.00000000000E+00 0. -1.
          6    1    1    2  501    0 -0.22491630206E+03 -0.54713456282E+00  0.26408916080E+02  0.28498082942E+03  0.17300000000E+03 0. -1.
         -6    1    1    2    0  502  0.22491630206E+03  0.54713456282E+00  0.20208495844E+03  0.34836040635E+03  0.17300000000E+03 0. -1.
<mgrwt>
<rscale>  2 0.28375455E+03</rscale>
<asrwt>0</asrwt>
<pdfrwt beam="1">  1       21 0.66295008E-01 0.28375455E+03</pdfrwt>
<pdfrwt beam="2">  1       21 0.31142105E-01 0.28375455E+03</pdfrwt>
<totfact> 0.19737868E+04</totfact>
</mgrwt>
</event>
<event>
 4    1  0.4441180E+000  0.2559236E+03  0.7546771E-02  0.1109617E+00
         21   -1    0    0  501  502  0.00000000000E+00  0.00000000000E+00  0.11190838926E+03  0.11190838926E+03  0.00000000000E+00 0. -1.
         21   -1    0    0  502  503 -0.00000000000E+00 -0.00000000000E+00 -0.59102550573E+03  0.59102550573E+03  0.00000000000E+00 0.  1.
          6    1    1    2  501    0  0.59014882252E+02  0.17912318654E+03 -0.20488175475E+03  0.32783136780E+03  0.17300000000E+03 0.  1.
         -6    1    1    2    0  503 -0.59014882252E+02 -0.17912318654E+03 -0.27423536172E+03  0.37510252719E+03  0.17300000000E+03 0.  1.
<mgrwt>
<rscale>  2 0.25592357E+03</rscale>
<asrwt>0</asrwt>
<pdfrwt beam="1">  1       21 0.17216675E-01 0.25592357E+03</pdfrwt>
<pdfrwt beam="2">  1       21 0.90927002E-01 0.25592357E+03</pdfrwt>
<totfact> 0.30279989E+04</totfact>
</mgrwt>
</event>
<event>
 4    1  0.4441180E+000  0.2456350E+03  0.7546771E-02  0.1116095E+00
         21   -1    0    0  501  502  0.00000000000E+00  0.00000000000E+00  0.42586195467E+03  0.42586195467E+03  0.00000000000E+00 0. -1.
         21   -1    0    0  502  503 -0.00000000000E+00 -0.00000000000E+00 -0.21879849885E+03  0.21879849885E+03  0.00000000000E+00 0.  1.
          6    1    1    2  501    0  0.17195295803E+03  0.28978056599E+02  0.29489356559E+03  0.38379520915E+03  0.17300000000E+03 0. -1.
         -6    1    1    2    0  503 -0.17195295803E+03 -0.28978056599E+02 -0.87830109766E+02  0.26086524437E+03  0.17300000000E+03 0.  1.
<mgrwt>
<rscale>  2 0.24563499E+03</rscale>
<asrwt>0</asrwt>
<pdfrwt beam="1">  1       21 0.65517224E-01 0.24563499E+03</pdfrwt>
<pdfrwt beam="2">  1       21 0.33661308E-01 0.24563499E+03</pdfrwt>
<totfact> 0.17672697E+04</totfact>
</mgrwt>
</event>
<event>
 4    1  0.4441180E+000  0.1965261E+03  0.7546771E-02  0.1152703E+00
         21   -1    0    0  501  502  0.00000000000E+00  0.00000000000E+00  0.60126669088E+02  0.60126669088E+02  0.00000000000E+00 0. -1.
         21   -1    0    0  502  503 -0.00000000000E+00 -0.00000000000E+00 -0.10815975243E+04  0.10815975243E+04  0.00000000000E+00 0. -1.
          6    1    1    2  501    0  0.87767951141E+02  0.31469214831E+02 -0.14694461978E+03  0.24538795001E+03  0.17300000000E+03 0. -1.
         -6    1    1    2    0  503 -0.87767951141E+02 -0.31469214831E+02 -0.87452623546E+03  0.89633624341E+03  0.17300000000E+03 0. -1.
<mgrwt>
<rscale>  2 0.19652614E+03</rscale>
<asrwt>0</asrwt>
<pdfrwt beam="1">  1       21 0.92502571E-02 0.19652614E+03</pdfrwt>
<pdfrwt beam="2">  1       21 0.16639961E+00 0.19652614E+03</pdfrwt>
<totfact> 0.21007586E+04</totfact>
</mgrwt>
</event>
<event>
 4    1  0.4441180E+000  0.2809824E+03  0.7546771E-02  0.1095154E+00
         21   -1    0    0  501  502  0.00000000000E+00  0.00000000000E+00  0.10772574144E+04  0.10772574144E+04  0.00000000000E+00 0.  1.
         21   -1    0    0  502  503 -0.00000000000E+00 -0.00000000000E+00 -0.82339339539E+02  0.82339339539E+02  0.00000000000E+00 0. -1.
          6    1    1    2  501    0 -0.12733018483E+03  0.18113292765E+03  0.68968226180E+03  0.74472326115E+03  0.17300000000E+03 0.  1.
         -6    1    1    2    0  503  0.12733018483E+03 -0.18113292765E+03  0.30523581307E+03  0.41487349280E+03  0.17300000000E+03 0. -1.
<mgrwt>
<rscale>  2 0.28098241E+03</rscale>
<asrwt>0</asrwt>
<pdfrwt beam="1">  1       21 0.16573190E+00 0.28098241E+03</pdfrwt>
<pdfrwt beam="2">  1       21 0.12667591E-01 0.28098241E+03</pdfrwt>
<totfact> 0.11506317E+04</totfact>
</mgrwt>
</event>
<event>
 4    1  0.4441180E+000  0.1918981E+03  0.7546771E-02  0.1156760E+00
         21   -1    0    0  503  502  0.00000000000E+00  0.00000000000E+00  0.45881228956E+02  0.45881228956E+02  0.00000000000E+00 0. -1.
         21   -1    0    0  501  503 -0.00000000000E+00 -0.00000000000E+00 -0.80965490054E+03  0.80965490054E+03  0.00000000000E+00 0.  1.
          6    1    1    2  501    0 -0.43098268499E+02  0.70981709091E+02 -0.42178087971E+03  0.46338318297E+03  0.17300000000E+03 0. -1.
         -6    1    1    2    0  502  0.43098268499E+02 -0.70981709091E+02 -0.34199279187E+03  0.39215294652E+03  0.17300000000E+03 0. -1.
<mgrwt>
<rscale>  2 0.19189806E+03</rscale>
<asrwt>0</asrwt>
<pdfrwt beam="1">  1       21 0.70586509E-02 0.19189806E+03</pdfrwt>
<pdfrwt beam="2">  1       21 0.12456229E+00 0.19189806E+03</pdfrwt>
<totfact> 0.71780523E+04</totfact>
</mgrwt>
</event>
<event>
 4    1  0.4441180E+000  0.2966930E+03  0.7546771E-02  0.1086906E+00
         21   -1    0    0  501  502  0.00000000000E+00  0.00000000000E+00  0.63938027482E+03  0.63938027482E+03  0.00000000000E+00 0. -1.
         21   -1    0    0  502  503 -0.00000000000E+00 -0.00000000000E+00 -0.14169231752E+03  0.14169231752E+03  0.00000000000E+00 0.  1.
          6    1    1    2  501    0  0.16235381741E+03  0.17815433731E+03  0.31460250214E+03  0.43243665928E+03  0.17300000000E+03 0.  1.
         -6    1    1    2    0  503 -0.16235381741E+03 -0.17815433731E+03  0.18308545516E+03  0.34863593306E+03  0.17300000000E+03 0.  1.
<mgrwt>
<rscale>  2 0.29669299E+03</rscale>
<asrwt>0</asrwt>
<pdfrwt beam="1">  1       21 0.98366195E-01 0.29669299E+03</pdfrwt>
<pdfrwt beam="2">  1       21 0.21798818E-01 0.29669299E+03</pdfrwt>
<totfact> 0.15857507E+04</totfact>
</mgrwt>
</event>
<event>
 4    1  0.4441180E+000  0.2222329E+03  0.7546771E-02  0.1132229E+00
         21   -1    0    0  503  502  0.00000000000E+00  0.00000000000E+00  0.44156298796E+03  0.44156298796E+03  0.00000000000E+00 0. -1.
         21   -1    0    0  501  503 -0.00000000000E+00 -0.00000000000E+00 -0.57724795307E+03  0.57724795307E+03  0.00000000000E+00 0.  1.
          6    1    1    2  501    0  0.26673317854E+02 -0.13691965850E+03 -0.52524239459E+03  0.57032186688E+03  0.17300000000E+03 0.  1.
         -6    1    1    2    0  502 -0.26673317854E+02  0.13691965850E+03  0.38955742948E+03  0.44848907415E+03  0.17300000000E+03 0. -1.
<mgrwt>
<rscale>  2 0.22223289E+03</rscale>
<asrwt>0</asrwt>
<pdfrwt beam="1">  1       21 0.67932767E-01 0.22223289E+03</pdfrwt>
<pdfrwt beam="2">  1       21 0.88807378E-01 0.22223289E+03</pdfrwt>
<totfact> 0.20904723E+03</totfact>
</mgrwt>
</event>
<event>
 4    1  0.4441180E+000  0.1807869E+03  0.7546771E-02  0.1167044E+00
         21   -1    0    0  503  502  0.00000000000E+00  0.00000000000E+00  0.26227205190E+02  0.26227205190E+02  0.00000000000E+00 0. -1.
         21   -1    0    0  501  503 -0.00000000000E+00 -0.00000000000E+00 -0.17868967220E+04  0.17868967220E+04  0.00000000000E+00 0. -1.
          6    1    1    2  501    0 -0.47117356317E+02 -0.23127275834E+02 -0.13790253484E+04  0.13908252327E+04  0.17300000000E+03 0. -1.
         -6    1    1    2    0  502  0.47117356317E+02  0.23127275834E+02 -0.38164416838E+03  0.42229869454E+03  0.17300000000E+03 0. -1.
<mgrwt>
<rscale>  2 0.18078694E+03</rscale>
<asrwt>0</asrwt>
<pdfrwt beam="1">  1       21 0.40349530E-02 0.18078694E+03</pdfrwt>
<pdfrwt beam="2">  1       21 0.27490730E+00 0.18078694E+03</pdfrwt>
<totfact> 0.18601398E+04</totfact>
</mgrwt>
</event>
<event>
 4    1  0.4441180E+000  0.1876977E+03  0.7546771E-02  0.1160554E+00
         21   -1    0    0  501  502  0.00000000000E+00  0.00000000000E+00  0.42536620214E+03  0.42536620214E+03  0.00000000000E+00 0.  1.
         21   -1    0    0  502  503 -0.00000000000E+00 -0.00000000000E+00 -0.86206397372E+02  0.86206397372E+02  0.00000000000E+00 0.  1.
          6    1    1    2  501    0 -0.70221977380E+02  0.19243357632E+02  0.22024799388E+03  0.28937797381E+03  0.17300000000E+03 0.  1.
         -6    1    1    2    0  503  0.70221977380E+02 -0.19243357632E+02  0.11891181089E+03  0.22219462570E+03  0.17300000000E+03 0.  1.
<mgrwt>
<rscale>  2 0.18769772E+03</rscale>
<asrwt>0</asrwt>
<pdfrwt beam="1">  1       21 0.65440953E-01 0.18769772E+03</pdfrwt>
<pdfrwt beam="2">  1       21 0.13262523E-01 0.18769772E+03</pdfrwt>
<totfact> 0.10550122E+05</totfact>
</mgrwt>
</event>
<event>
 4    1  0.4441180E+000  0.1769126E+03  0.7546771E-02  0.1170825E+00
         21   -1    0    0  503  502  0.00000000000E+00  0.00000000000E+00  0.27923134949E+03  0.27923134949E+03  0.00000000000E+00 0.  1.
         21   -1    0    0  501  503 -0.00000000000E+00 -0.00000000000E+00 -0.11243144647E+03  0.11243144647E+03  0.00000000000E+00 0.  1.
          6    1    1    2  501    0 -0.33041486785E+02  0.16653470688E+02  0.72553583499E+02  0.19121218689E+03  0.17300000000E+03 0.  1.
         -6    1    1    2    0  502  0.33041486785E+02 -0.16653470688E+02  0.94246319522E+02  0.20045060907E+03  0.17300000000E+03 0.  1.
<mgrwt>
<rscale>  2 0.17691263E+03</rscale>
<asrwt>0</asrwt>
<pdfrwt beam="1">  1       21 0.42958669E-01 0.17691263E+03</pdfrwt>
<pdfrwt beam="2">  1       21 0.17297146E-01 0.17691263E+03</pdfrwt>
<totfact> 0.15825387E+05</totfact>
</mgrwt>
</event>
<event>
 4    1  0.4441180E+000  0.2096069E+03  0.7546771E-02  0.1141878E+00
         21   -1    0    0  501  502  0.00000000000E+00  0.00000000000E+00  0.48871463932E+03  0.48871463932E+03  0.00000000000E+00 0. -1.
         21   -1    0    0  502  503 -0.00000000000E+00 -0.00000000000E+00 -0.18834142846E+03  0.18834142846E+03  0.00000000000E+00 0. -1.
          6    1    1    2  501    0 -0.82364509304E+02  0.84983132005E+02  0.39493084127E+03  0.44710783320E+03  0.17300000000E+03 0. -1.
         -6    1    1    2    0  503  0.82364509304E+02 -0.84983132005E+02 -0.94557630415E+02  0.22994823458E+03  0.17300000000E+03 0. -1.
<mgrwt>
<rscale>  2 0.20960688E+03</rscale>
<asrwt>0</asrwt>
<pdfrwt beam="1">  1       21 0.75186867E-01 0.20960688E+03</pdfrwt>
<pdfrwt beam="2">  1       21 0.28975605E-01 0.20960688E+03</pdfrwt>
<totfact> 0.17839791E+04</totfact>
</mgrwt>
</event>
<event>
 4    1  0.4441180E+000  0.2300571E+03  0.7546771E-02  0.1126600E+00
         21   -1    0    0  501  502  0.00000000000E+00  0.00000000000E+00  0.16147889829E+03  0.16147889829E+03  0.00000000000E+00 0.  1.
         21   -1    0    0  502  503 -0.00000000000E+00 -0.00000000000E+00 -0.68941282153E+03  0.68941282153E+03  0.00000000000E+00 0.  1.
          6    1    1    2  501    0  0.14082868036E+03 -0.56254485267E+02  0.44174897918E+02  0.23425991106E+03  0.17300000000E+03 0.  1.
         -6    1    1    2    0  503 -0.14082868036E+03  0.56254485267E+02 -0.57210882116E+03  0.61663180876E+03  0.17300000000E+03 0.  1.
<mgrwt>
<rscale>  2 0.23005713E+03</rscale>
<asrwt>0</asrwt>
<pdfrwt beam="1">  1       21 0.24842907E-01 0.23005713E+03</pdfrwt>
<pdfrwt beam="2">  1       21 0.10606351E+00 0.23005713E+03</pdfrwt>
<totfact> 0.10663630E+04</totfact>
</mgrwt>
</event>
<event>
 4    1  0.4441180E+000  0.2042524E+03  0.7546771E-02  0.1146200E+00
         21   -1    0    0  501  502  0.00000000000E+00  0.00000000000E+00  0.16429527019E+04  0.16429527019E+04  0.00000000000E+00 0.  1.
         21   -1    0    0  502  503 -0.00000000000E+00 -0.00000000000E+00 -0.36320158335E+02  0.36320158335E+02  0.00000000000E+00 0.  1.
          6    1    1    2  501    0 -0.40110457007E+02  0.10090200358E+03  0.12638657396E+04  0.12802639067E+04  0.17300000000E+03 0.  1.
         -6    1    1    2    0  503  0.40110457007E+02 -0.10090200358E+03  0.34276680390E+03  0.39900895346E+03  0.17300000000E+03 0.  1.
<mgrwt>
<rscale>  2 0.20425245E+03</rscale>
<asrwt>0</asrwt>
<pdfrwt beam="1">  1       21 0.25276190E+00 0.20425245E+03</pdfrwt>
<pdfrwt beam="2">  1       21 0.55877179E-02 0.20425245E+03</pdfrwt>
<totfact> 0.14114461E+04</totfact>
</mgrwt>
</event>
<event>
 4    1  0.4441180E+000  0.2624339E+03  0.7546771E-02  0.1105690E+00
         21   -1    0    0  501  502  0.00000000000E+00  0.00000000000E+00  0.52525897333E+03  0.52525897333E+03  0.00000000000E+00 0.  1.
         21   -1    0    0  502  503 -0.00000000000E+00 -0.00000000000E+00 -0.16455184518E+03  0.16455184518E+03  0.00000000000E+00 0. -1.
          6    1    1    2  501    0 -0.75054903499E+02  0.18250839841E+03  0.33581897483E+03  0.42619941094E+03  0.17300000000E+03 0.  1.
         -6    1    1    2    0  503  0.75054903499E+02 -0.18250839841E+03  0.24888153322E+02  0.26361140758E+03  0.17300000000E+03 0. -1.
<mgrwt>
<rscale>  2 0.26243390E+03</rscale>
<asrwt>0</asrwt>
<pdfrwt beam="1">  1       21 0.80809072E-01 0.26243390E+03</pdfrwt>
<pdfrwt beam="2">  1       21 0.25315669E-01 0.26243390E+03</pdfrwt>
<totfact> 0.19141559E+04</totfact>
</mgrwt>
</event>
<event>
 4    1  0.4441180E+000  0.1863490E+03  0.7546771E-02  0.1161796E+00
         21   -1    0    0  501  502  0.00000000000E+00  0.00000000000E+00  0.23044297446E+02  0.23044297446E+02  0.00000000000E+00 0.  1.
         21   -1    0    0  502  503 -0.00000000000E+00 -0.00000000000E+00 -0.17536061310E+04  0.17536061310E+04  0.00000000000E+00 0.  1.
          6    1    1    2  501    0 -0.11196875793E+02 -0.68348938906E+02 -0.53210239243E+03  0.56378976889E+03  0.17300000000E+03 0.  1.
         -6    1    1    2    0  503  0.11196875793E+02  0.68348938906E+02 -0.11984594411E+04  0.12128606595E+04  0.17300000000E+03 0.  1.
<mgrwt>
<rscale>  2 0.18634899E+03</rscale>
<asrwt>0</asrwt>
<pdfrwt beam="1">  1       21 0.35452754E-02 0.18634899E+03</pdfrwt>
<pdfrwt beam="2">  1       21 0.26978564E+00 0.18634899E+03</pdfrwt>
<totfact> 0.24583030E+04</totfact>
</mgrwt>
</event>
<event>
 4    1  0.4441180E+000  0.1855008E+03  0.7546771E-02  0.1162583E+00
         21   -1    0    0  503  502  0.00000000000E+00  0.00000000000E+00  0.38889342568E+03  0.38889342568E+03  0.00000000000E+00 0. -1.
         21   -1    0    0  501  503 -0.00000000000E+00 -0.00000000000E+00 -0.11091512929E+03  0.11091512929E+03  0.00000000000E+00 0. -1.
          6    1    1    2  501    0 -0.42409270955E+02 -0.51797605283E+02  0.26603326928E+02  0.18739870645E+03  0.17300000000E+03 0. -1.
         -6    1    1    2    0  502  0.42409270955E+02  0.51797605283E+02  0.25137496947E+03  0.31240984852E+03  0.17300000000E+03 0. -1.
<mgrwt>
<rscale>  2 0.18550078E+03</rscale>
<asrwt>0</asrwt>
<pdfrwt beam="1">  1       21 0.59829757E-01 0.18550078E+03</pdfrwt>
<pdfrwt beam="2">  1       21 0.17063866E-01 0.18550078E+03</pdfrwt>
<totfact> 0.81009215E+04</totfact>
</mgrwt>
</event>
<event>
 4    1  0.4441180E+000  0.1934251E+03  0.7546771E-02  0.1155408E+00
         21   -1    0    0  501  502  0.00000000000E+00  0.00000000000E+00  0.64595149325E+02  0.64595149325E+02  0.00000000000E+00 0. -1.
         21   -1    0    0  502  503 -0.00000000000E+00 -0.00000000000E+00 -0.66556705146E+03  0.66556705146E+03  0.00000000000E+00 0. -1.
          6    1    1    2  501    0  0.71666372697E+02 -0.48458056918E+02 -0.43200163303E+03  0.47332722634E+03  0.17300000000E+03 0. -1.
         -6    1    1    2    0  503 -0.71666372697E+02  0.48458056918E+02 -0.16897026910E+03  0.25683497444E+03  0.17300000000E+03 0. -1.
<mgrwt>
<rscale>  2 0.19342506E+03</rscale>
<asrwt>0</asrwt>
<pdfrwt beam="1">  1       21 0.99377158E-02 0.19342506E+03</pdfrwt>
<pdfrwt beam="2">  1       21 0.10239493E+00 0.19342506E+03</pdfrwt>
<totfact> 0.63641761E+04</totfact>
</mgrwt>
</event>
<event>
 4    1  0.4441180E+000  0.2979533E+03  0.7546771E-02  0.1086268E+00
         21   -1    0    0  503  502  0.00000000000E+00  0.00000000000E+00  0.27712153455E+03  0.27712153455E+03  0.00000000000E+00 0.  1.
         21   -1    0    0  501  503 -0.00000000000E+00 -0.00000000000E+00 -0.46096440566E+03  0.46096440566E+03  0.00000000000E+00 0. -1.
          6    1    1    2  501    0  0.78892340189E+02 -0.22939736202E+03 -0.29574606358E+03  0.41981172585E+03  0.17300000000E+03 0. -1.
         -6    1    1    2    0  502 -0.78892340189E+02  0.22939736202E+03  0.11190319247E+03  0.31827421436E+03  0.17300000000E+03 0.  1.
<mgrwt>
<rscale>  2 0.29795327E+03</rscale>
<asrwt>0</asrwt>
<pdfrwt beam="1">  1       21 0.42634082E-01 0.29795327E+03</pdfrwt>
<pdfrwt beam="2">  1       21 0.70917601E-01 0.29795327E+03</pdfrwt>
<totfact> 0.89664651E+03</totfact>
</mgrwt>
</event>
<event>
 4    1  0.4441180E+000  0.2213230E+03  0.7546771E-02  0.1132901E+00
         21   -1    0    0  503  502  0.00000000000E+00  0.00000000000E+00  0.58165240479E+02  0.58165240479E+02  0.00000000000E+00 0.  1.
         21   -1    0    0  501  503 -0.00000000000E+00 -0.00000000000E+00 -0.93080761632E+03  0.93080761632E+03  0.00000000000E+00 0.  1.
          6    1    1    2  501    0  0.39028511308E+02 -0.13240711862E+03 -0.58893080823E+03  0.62914494883E+03  0.17300000000E+03 0.  1.
         -6    1    1    2    0  502 -0.39028511308E+02  0.13240711862E+03 -0.28371156762E+03  0.35982790797E+03  0.17300000000E+03 0.  1.
<mgrwt>
<rscale>  2 0.22132300E+03</rscale>
<asrwt>0</asrwt>
<pdfrwt beam="1">  1       21 0.89484988E-02 0.22132300E+03</pdfrwt>
<pdfrwt beam="2">  1       21 0.14320117E+00 0.22132300E+03</pdfrwt>
<totfact> 0.32741122E+04</totfact>
</mgrwt>
</event>
<event>
 4    1  0.4441180E+000  0.2252374E+03  0.7546771E-02  0.1130037E+00
         21   -1    0    0  503  502  0.00000000000E+00  0.00000000000E+00  0.11265803919E+04  0.11265803919E+04  0.00000000000E+00 0. -1.
         21   -1    0    0  501  503 -0.00000000000E+00 -0.00000000000E+00 -0.13244837905E+03  0.13244837905E+03  0.00000000000E+00 0.  1.
          6    1    1    2  501    0  0.76416048438E+01  0.14402955408E+03 -0.14355890368E+02  0.22569447968E+03  0.17300000000E+03 0.  1.
         -6    1    1    2    0  502 -0.76416048438E+01 -0.14402955408E+03  0.10084879032E+04  0.10333342912E+04  0.17300000000E+03 0. -1.
<mgrwt>
<rscale>  2 0.22523744E+03</rscale>
<asrwt>0</asrwt>
<pdfrwt beam="1">  1       21 0.17332005E+00 0.22523744E+03</pdfrwt>
<pdfrwt beam="2">  1       21 0.20376674E-01 0.22523744E+03</pdfrwt>
<totfact> 0.43862399E+03</totfact>
</mgrwt>
</event>
<event>
 4    1  0.4441180E+000  0.2216675E+03  0.7546771E-02  0.1132646E+00
         21   -1    0    0  501  502  0.00000000000E+00  0.00000000000E+00  0.21070945969E+03  0.21070945969E+03  0.00000000000E+00 0.  1.
         21   -1    0    0  502  503 -0.00000000000E+00 -0.00000000000E+00 -0.32002412845E+03  0.32002412845E+03  0.00000000000E+00 0.  1.
          6    1    1    2  501    0  0.44385193780E+01 -0.13851998239E+03  0.83567738271E+02  0.23689671347E+03  0.17300000000E+03 0.  1.
         -6    1    1    2    0  503 -0.44385193780E+01  0.13851998239E+03 -0.19288240702E+03  0.29383687467E+03  0.17300000000E+03 0.  1.
<mgrwt>
<rscale>  2 0.22166751E+03</rscale>
<asrwt>0</asrwt>
<pdfrwt beam="1">  1       21 0.32416840E-01 0.22166751E+03</pdfrwt>
<pdfrwt beam="2">  1       21 0.49234481E-01 0.22166751E+03</pdfrwt>
<totfact> 0.35497299E+04</totfact>
</mgrwt>
</event>
<event>
 4    1  0.4441180E+000  0.2863385E+03  0.7546771E-02  0.1092276E+00
         21   -1    0    0  501  502  0.00000000000E+00  0.00000000000E+00  0.15348718222E+03  0.15348718222E+03  0.00000000000E+00 0. -1.
         21   -1    0    0  502  503 -0.00000000000E+00 -0.00000000000E+00 -0.59898198324E+03  0.59898198324E+03  0.00000000000E+00 0.  1.
          6    1    1    2  501    0 -0.22170201163E+03  0.53934786757E+02 -0.98996932315E+02  0.30296886934E+03  0.17300000000E+03 0. -1.
         -6    1    1    2    0  503  0.22170201163E+03 -0.53934786757E+02 -0.34649786871E+03  0.44950029611E+03  0.17300000000E+03 0. -1.
<mgrwt>
<rscale>  2 0.28633851E+03</rscale>
<asrwt>0</asrwt>
<pdfrwt beam="1">  1       21 0.23613412E-01 0.28633851E+03</pdfrwt>
<pdfrwt beam="2">  1       21 0.92151077E-01 0.28633851E+03</pdfrwt>
<totfact> 0.15962381E+04</totfact>
</mgrwt>
</event>
<event>
 4    1  0.4441180E+000  0.1735258E+03  0.7546771E-02  0.1174220E+00
         21   -1    0    0  503  502  0.00000000000E+00  0.00000000000E+00  0.10037503225E+04  0.10037503225E+04  0.00000000000E+00 0. -1.
         21   -1    0    0  501  503 -0.00000000000E+00 -0.00000000000E+00 -0.30217859728E+02  0.30217859728E+02  0.00000000000E+00 0. -1.
          6    1    1    2  501    0 -0.13296877769E+02 -0.23227709253E+01  0.44273830338E+03  0.47552960738E+03  0.17300000000E+03 0. -1.
         -6    1    1    2    0  502  0.13296877769E+02  0.23227709253E+01  0.53079415937E+03  0.55843857482E+03  0.17300000000E+03 0. -1.
<mgrwt>
<rscale>  2 0.17352580E+03</rscale>
<asrwt>0</asrwt>
<pdfrwt beam="1">  1       21 0.15442310E+00 0.17352580E+03</pdfrwt>
<pdfrwt beam="2">  1       21 0.46489023E-02 0.17352580E+03</pdfrwt>
<totfact> 0.85047119E+04</totfact>
</mgrwt>
</event>
<event>
 4    1  0.4441180E+000  0.1800457E+03  0.7546771E-02  0.1167759E+00
         21   -1    0    0  503  502  0.00000000000E+00  0.00000000000E+00  0.22614597137E+03  0.22614597137E+03  0.00000000000E+00 0.  1.
         21   -1    0    0  501  503 -0.00000000000E+00 -0.00000000000E+00 -0.42159827393E+03  0.42159827393E+03  0.00000000000E+00 0.  1.
          6    1    1    2  501    0 -0.26430303440E+02  0.42295170154E+02 -0.36084130207E+03  0.40326528197E+03  0.17300000000E+03 0.  1.
         -6    1    1    2    0  502  0.26430303440E+02 -0.42295170154E+02  0.16538899951E+03  0.24447896334E+03  0.17300000000E+03 0.  1.
<mgrwt>
<rscale>  2 0.18004567E+03</rscale>
<asrwt>0</asrwt>
<pdfrwt beam="1">  1       21 0.34791688E-01 0.18004567E+03</pdfrwt>
<pdfrwt beam="2">  1       21 0.64861272E-01 0.18004567E+03</pdfrwt>
<totfact> 0.17572627E+04</totfact>
</mgrwt>
</event>
<event>
 4    1  0.4441180E+000  0.4739386E+03  0.7546771E-02  0.1020814E+00
         21   -1    0    0  503  502  0.00000000000E+00  0.00000000000E+00  0.65697589744E+03  0.65697589744E+03  0.00000000000E+00 0.  1.
         21   -1    0    0  501  503 -0.00000000000E+00 -0.00000000000E+00 -0.70148733311E+03  0.70148733311E+03  0.00000000000E+00 0. -1.
          6    1    1    2  501    0  0.34869486829E+03  0.27037142302E+03 -0.50856462998E+03  0.69516602364E+03  0.17300000000E+03 0. -1.
         -6    1    1    2    0  502 -0.34869486829E+03 -0.27037142302E+03  0.46405319430E+03  0.66329720691E+03  0.17300000000E+03 0.  1.
<mgrwt>
<rscale>  2 0.47393862E+03</rscale>
<asrwt>0</asrwt>
<pdfrwt beam="1">  1       21 0.10107321E+00 0.47393862E+03</pdfrwt>
<pdfrwt beam="2">  1       21 0.10792113E+00 0.47393862E+03</pdfrwt>
<totfact> 0.45215329E+02</totfact>
</mgrwt>
</event>
<event>
 4    1  0.4441180E+000  0.1938930E+03  0.7546771E-02  0.1154996E+00
         21   -1    0    0  503  502  0.00000000000E+00  0.00000000000E+00  0.12365344798E+03  0.12365344798E+03  0.00000000000E+00 0.  1.
         21   -1    0    0  501  503 -0.00000000000E+00 -0.00000000000E+00 -0.13124166785E+04  0.13124166785E+04  0.00000000000E+00 0.  1.
          6    1    1    2  501    0 -0.39271575740E+02 -0.78251111634E+02 -0.12237763364E+04  0.12390411674E+04  0.17300000000E+03 0.  1.
         -6    1    1    2    0  502  0.39271575740E+02  0.78251111634E+02  0.35013105822E+02  0.19702895907E+03  0.17300000000E+03 0.  1.
<mgrwt>
<rscale>  2 0.19389299E+03</rscale>
<asrwt>0</asrwt>
<pdfrwt beam="1">  1       21 0.19023608E-01 0.19389299E+03</pdfrwt>
<pdfrwt beam="2">  1       21 0.20191026E+00 0.19389299E+03</pdfrwt>
<totfact> 0.33039215E+03</totfact>
</mgrwt>
</event>
<event>
 4    1  0.4441180E+000  0.2119870E+03  0.7546771E-02  0.1140002E+00
         21   -1    0    0  501  502  0.00000000000E+00  0.00000000000E+00  0.69371640469E+02  0.69371640469E+02  0.00000000000E+00 0. -1.
         21   -1    0    0  502  503 -0.00000000000E+00 -0.00000000000E+00 -0.65040425605E+03  0.65040425605E+03  0.00000000000E+00 0. -1.
          6    1    1    2  501    0 -0.12177836560E+03 -0.13398700544E+02 -0.31331770665E+03  0.37829417231E+03  0.17300000000E+03 0. -1.
         -6    1    1    2    0  503  0.12177836560E+03  0.13398700544E+02 -0.26771490893E+03  0.34148172421E+03  0.17300000000E+03 0. -1.
<mgrwt>
<rscale>  2 0.21198702E+03</rscale>
<asrwt>0</asrwt>
<pdfrwt beam="1">  1       21 0.10672560E-01 0.21198702E+03</pdfrwt>
<pdfrwt beam="2">  1       21 0.10006219E+00 0.21198702E+03</pdfrwt>
<totfact> 0.58721978E+04</totfact>
</mgrwt>
</event>
<event>
 4    1  0.4441180E+000  0.1963411E+03  0.7546771E-02  0.1152863E+00
         21   -1    0    0  501  502  0.00000000000E+00  0.00000000000E+00  0.69694597285E+02  0.69694597285E+02  0.00000000000E+00 0.  1.
         21   -1    0    0  502  503 -0.00000000000E+00 -0.00000000000E+00 -0.71133528293E+03  0.71133528293E+03  0.00000000000E+00 0.  1.
          6    1    1    2  501    0  0.92641339881E+02 -0.61979467460E+01 -0.13665085988E+03  0.23921389990E+03  0.17300000000E+03 0.  1.
         -6    1    1    2    0  503 -0.92641339881E+02  0.61979467460E+01 -0.50498982576E+03  0.54181598031E+03  0.17300000000E+03 0.  1.
<mgrwt>
<rscale>  2 0.19634111E+03</rscale>
<asrwt>0</asrwt>
<pdfrwt beam="1">  1       21 0.10722246E-01 0.19634111E+03</pdfrwt>
<pdfrwt beam="2">  1       21 0.10943619E+00 0.19634111E+03</pdfrwt>
<totfact> 0.47334374E+04</totfact>
</mgrwt>
</event>
<event>
 4    1  0.4441180E+000  0.1890584E+03  0.7546771E-02  0.1159313E+00
         21   -1    0    0  503  502  0.00000000000E+00  0.00000000000E+00  0.20014961839E+04  0.20014961839E+04  0.00000000000E+00 0.  1.
         21   -1    0    0  501  503 -0.00000000000E+00 -0.00000000000E+00 -0.44733745859E+02  0.44733745859E+02  0.00000000000E+00 0.  1.
          6    1    1    2  501    0  0.64330294463E+02  0.40935321335E+02  0.18535859139E+03  0.26476573555E+03  0.17300000000E+03 0.  1.
         -6    1    1    2    0  502 -0.64330294463E+02 -0.40935321335E+02  0.17714038467E+04  0.17814641942E+04  0.17300000000E+03 0.  1.
<mgrwt>
<rscale>  2 0.18905842E+03</rscale>
<asrwt>0</asrwt>
<pdfrwt beam="1">  1       21 0.30792242E+00 0.18905842E+03</pdfrwt>
<pdfrwt beam="2">  1       21 0.68821163E-02 0.18905842E+03</pdfrwt>
<totfact> 0.48074998E+03</totfact>
</mgrwt>
</event>
<event>
 4    1  0.4441180E+000  0.3545338E+03  0.7546771E-02  0.1060769E+00
         21   -1    0    0  501  502  0.00000000000E+00  0.00000000000E+00  0.23406727052E+03  0.23406727052E+03  0.00000000000E+00 0. -1.
         21   -1    0    0  502  503 -0.00000000000E+00 -0.00000000000E+00 -0.98002887896E+03  0.98002887896E+03  0.00000000000E+00 0.  1.
          6    1    1    2  501    0  0.26480697088E+03 -0.16013265783E+03  0.35168921788E+02  0.35627384551E+03  0.17300000000E+03 0. -1.
         -6    1    1    2    0  503 -0.26480697088E+03  0.16013265783E+03 -0.78113053023E+03  0.85782230397E+03  0.17300000000E+03 0.  1.
<mgrwt>
<rscale>  2 0.35453378E+03</rscale>
<asrwt>0</asrwt>
<pdfrwt beam="1">  1       21 0.36010349E-01 0.35453378E+03</pdfrwt>
<pdfrwt beam="2">  1       21 0.15077367E+00 0.35453378E+03</pdfrwt>
<totfact> 0.19575922E+03</totfact>
</mgrwt>
</event>
<event>
 4    1  0.4441180E+000  0.1913252E+03  0.7546771E-02  0.1157272E+00
         21   -1    0    0  501  502  0.00000000000E+00  0.00000000000E+00  0.77981587294E+03  0.77981587294E+03  0.00000000000E+00 0. -1.
         21   -1    0    0  502  503 -0.00000000000E+00 -0.00000000000E+00 -0.90346398304E+02  0.90346398304E+02  0.00000000000E+00 0. -1.
          6    1    1    2  501    0 -0.70667776320E+02 -0.41017005714E+02  0.64630377674E+03  0.67402811603E+03  0.17300000000E+03 0. -1.
         -6    1    1    2    0  503  0.70667776320E+02  0.41017005714E+02  0.43165697898E+02  0.19613415522E+03  0.17300000000E+03 0. -1.
<mgrwt>
<rscale>  2 0.19132519E+03</rscale>
<asrwt>0</asrwt>
<pdfrwt beam="1">  1       21 0.11997167E+00 0.19132519E+03</pdfrwt>
<pdfrwt beam="2">  1       21 0.13899446E-01 0.19132519E+03</pdfrwt>
<totfact> 0.23823941E+04</totfact>
</mgrwt>
</event>
<event>
 4    1  0.4441180E+000  0.2206507E+03  0.7546771E-02  0.1133399E+00
         21   -1    0    0  503  502  0.00000000000E+00  0.00000000000E+00  0.22262126996E+03  0.22262126996E+03  0.00000000000E+00 0. -1.
         21   -1    0    0  501  503 -0.00000000000E+00 -0.00000000000E+00 -0.52635803439E+03  0.52635803439E+03  0.00000000000E+00 0.  1.
          6    1    1    2  501    0  0.11442038839E+03  0.75270798014E+02 -0.43817743407E+03  0.49059778030E+03  0.17300000000E+03 0.  1.
         -6    1    1    2    0  502 -0.11442038839E+03 -0.75270798014E+02  0.13444066964E+03  0.25838152404E+03  0.17300000000E+03 0. -1.
<mgrwt>
<rscale>  2 0.22065067E+03</rscale>
<asrwt>0</asrwt>
<pdfrwt beam="1">  1       21 0.34249427E-01 0.22065067E+03</pdfrwt>
<pdfrwt beam="2">  1       21 0.80978158E-01 0.22065067E+03</pdfrwt>
<totfact> 0.10790079E+04</totfact>
</mgrwt>
</event>
<event>
 4    1  0.4441180E+000  0.2217117E+03  0.7546771E-02  0.1132613E+00
         21   -1    0    0  501  502  0.00000000000E+00  0.00000000000E+00  0.66425484005E+03  0.66425484005E+03  0.00000000000E+00 0. -1.
         21   -1    0    0  502  503 -0.00000000000E+00 -0.00000000000E+00 -0.82089552610E+02  0.82089552610E+02  0.00000000000E+00 0. -1.
          6    1    1    2  501    0 -0.82192977795E+02 -0.11167536354E+03  0.17394984729E+03  0.28180600028E+03  0.17300000000E+03 0. -1.
         -6    1    1    2    0  503  0.82192977795E+02  0.11167536354E+03  0.40821544014E+03  0.46453839238E+03  0.17300000000E+03 0. -1.
<mgrwt>
<rscale>  2 0.22171169E+03</rscale>
<asrwt>0</asrwt>
<pdfrwt beam="1">  1       21 0.10219305E+00 0.22171169E+03</pdfrwt>
<pdfrwt beam="2">  1       21 0.12629162E-01 0.22171169E+03</pdfrwt>
<totfact> 0.41117753E+04</totfact>
</mgrwt>
</event>
<event>
 4    1  0.4441180E+000  0.2011789E+03  0.7546771E-02  0.1148748E+00
         21   -1    0    0  503  502  0.00000000000E+00  0.00000000000E+00  0.12659551880E+04  0.12659551880E+04  0.00000000000E+00 0. -1.
         21   -1    0    0  501  503 -0.00000000000E+00 -0.00000000000E+00 -0.75288004509E+02  0.75288004509E+02  0.00000000000E+00 0. -1.
          6    1    1    2  501    0  0.87039860170E+02  0.54479304469E+02  0.86650269851E+02  0.21904611647E+03  0.17300000000E+03 0.  1.
         -6    1    1    2    0  502 -0.87039860170E+02 -0.54479304469E+02  0.11040169136E+04  0.11221970760E+04  0.17300000000E+03 0.  1.
<mgrwt>
<rscale>  2 0.20117886E+03</rscale>
<asrwt>0</asrwt>
<pdfrwt beam="1">  1       21 0.19476232E+00 0.20117886E+03</pdfrwt>
<pdfrwt beam="2">  1       21 0.11582771E-01 0.20117886E+03</pdfrwt>
<totfact> 0.90093124E+03</totfact>
</mgrwt>
</event>
<event>
 4    1  0.4441180E+000  0.5710794E+03  0.7546771E-02  0.9967293E-01
         21   -1    0    0  503  502  0.00000000000E+00  0.00000000000E+00  0.95803093672E+03  0.95803093672E+03  0.00000000000E+00 0. -1.
         21   -1    0    0  501  503 -0.00000000000E+00 -0.00000000000E+00 -0.38714928035E+03  0.38714928035E+03  0.00000000000E+00 0.  1.
          6    1    1    2  501    0 -0.20456963249E+03 -0.50433510303E+03  0.51766012018E+02  0.57342074490E+03  0.17300000000E+03 0.  1.
         -6    1    1    2    0  502  0.20456963249E+03  0.50433510303E+03  0.51911564434E+03  0.77175947217E+03  0.17300000000E+03 0. -1.
<mgrwt>
<rscale>  2 0.57107936E+03</rscale>
<asrwt>0</asrwt>
<pdfrwt beam="1">  1       21 0.14738937E+00 0.57107936E+03</pdfrwt>
<pdfrwt beam="2">  1       21 0.59561428E-01 0.57107936E+03</pdfrwt>
<totfact> 0.65908800E+02</totfact>
</mgrwt>
</event>
<event>
 4    1  0.4441180E+000  0.1803002E+03  0.7546771E-02  0.1167513E+00
         21   -1    0    0  503  502  0.00000000000E+00  0.00000000000E+00  0.12013114555E+03  0.12013114555E+03  0.00000000000E+00 0. -1.
         21   -1    0    0  501  503 -0.00000000000E+00 -0.00000000000E+00 -0.27652401209E+03  0.27652401209E+03  0.00000000000E+00 0. -1.
          6    1    1    2  501    0 -0.46946298720E+02  0.19369826475E+02 -0.10721153141E+03  0.20976762765E+03  0.17300000000E+03 0. -1.
         -6    1    1    2    0  502  0.46946298720E+02 -0.19369826475E+02 -0.49181335129E+02  0.18688752999E+03  0.17300000000E+03 0. -1.
<mgrwt>
<rscale>  2 0.18030015E+03</rscale>
<asrwt>0</asrwt>
<pdfrwt beam="1">  1       21 0.18481715E-01 0.18030015E+03</pdfrwt>
<pdfrwt beam="2">  1       21 0.42542155E-01 0.18030015E+03</pdfrwt>
<totfact> 0.14269843E+05</totfact>
</mgrwt>
</event>
<event>
 4    1  0.4441180E+000  0.2193546E+03  0.7546771E-02  0.1134365E+00
         21   -1    0    0  501  502  0.00000000000E+00  0.00000000000E+00  0.25433349578E+03  0.25433349578E+03  0.00000000000E+00 0. -1.
         21   -1    0    0  502  503 -0.00000000000E+00 -0.00000000000E+00 -0.28602483678E+03  0.28602483678E+03  0.00000000000E+00 0. -1.
          6    1    1    2  501    0  0.70519420247E+02  0.11495417126E+03  0.14136201228E+03  0.26095913212E+03  0.17300000000E+03 0. -1.
         -6    1    1    2    0  503 -0.70519420247E+02 -0.11495417126E+03 -0.17305335328E+03  0.27939920043E+03  0.17300000000E+03 0. -1.
<mgrwt>
<rscale>  2 0.21935462E+03</rscale>
<asrwt>0</asrwt>
<pdfrwt beam="1">  1       21 0.39128230E-01 0.21935462E+03</pdfrwt>
<pdfrwt beam="2">  1       21 0.44003821E-01 0.21935462E+03</pdfrwt>
<totfact> 0.30802283E+04</totfact>
</mgrwt>
</event>
<event>
 4    1  0.4441180E+000  0.2047756E+03  0.7546771E-02  0.1145771E+00
         21   -1    0    0  503  502  0.00000000000E+00  0.00000000000E+00  0.10847171916E+03  0.10847171916E+03  0.00000000000E+00 0.  1.
         21   -1    0    0  501  503 -0.00000000000E+00 -0.00000000000E+00 -0.72959039679E+03  0.72959039679E+03  0.00000000000E+00 0.  1.
          6    1    1    2  501    0 -0.95336257773E+02 -0.53991211090E+02 -0.59787544736E+03  0.63197160022E+03  0.17300000000E+03 0.  1.
         -6    1    1    2    0  502  0.95336257773E+02  0.53991211090E+02 -0.23243230267E+02  0.20609051573E+03  0.17300000000E+03 0.  1.
<mgrwt>
<rscale>  2 0.20477562E+03</rscale>
<asrwt>0</asrwt>
<pdfrwt beam="1">  1       21 0.16687957E-01 0.20477562E+03</pdfrwt>
<pdfrwt beam="2">  1       21 0.11224467E+00 0.20477562E+03</pdfrwt>
<totfact> 0.19920511E+04</totfact>
</mgrwt>
</event>
<event>
 4    1  0.4441180E+000  0.2683656E+03  0.7546771E-02  0.1102219E+00
         21   -1    0    0  501  502  0.00000000000E+00  0.00000000000E+00  0.57740018480E+02  0.57740018480E+02  0.00000000000E+00 0. -1.
         21   -1    0    0  502  503 -0.00000000000E+00 -0.00000000000E+00 -0.15385567261E+04  0.15385567261E+04  0.00000000000E+00 0.  1.
          6    1    1    2  501    0  0.15141590494E+03 -0.13843519952E+03 -0.39315014796E+03  0.47601168008E+03  0.17300000000E+03 0. -1.
         -6    1    1    2    0  503 -0.15141590494E+03  0.13843519952E+03 -0.10876665597E+04  0.11202850645E+04  0.17300000000E+03 0.  1.
<mgrwt>
<rscale>  2 0.26836557E+03</rscale>
<asrwt>0</asrwt>
<pdfrwt beam="1">  1       21 0.88830801E-02 0.26836557E+03</pdfrwt>
<pdfrwt beam="2">  1       21 0.23670103E+00 0.26836557E+03</pdfrwt>
<totfact> 0.74872721E+03</totfact>
</mgrwt>
</event>
<event>
 4    1  0.4441180E+000  0.1755459E+03  0.7546771E-02  0.1172185E+00
         21   -1    0    0  503  502  0.00000000000E+00  0.00000000000E+00  0.10726693086E+03  0.10726693086E+03  0.00000000000E+00 0. -1.
         21   -1    0    0  501  503 -0.00000000000E+00 -0.00000000000E+00 -0.40313845678E+03  0.40313845678E+03  0.00000000000E+00 0. -1.
          6    1    1    2  501    0  0.25645175084E+02  0.15155073076E+02 -0.28474318206E+03  0.33450714637E+03  0.17300000000E+03 0. -1.
         -6    1    1    2    0  502 -0.25645175084E+02 -0.15155073076E+02 -0.11128343870E+02  0.17589824127E+03  0.17300000000E+03 0. -1.
<mgrwt>
<rscale>  2 0.17554587E+03</rscale>
<asrwt>0</asrwt>
<pdfrwt beam="1">  1       21 0.16502605E-01 0.17554587E+03</pdfrwt>
<pdfrwt beam="2">  1       21 0.62021300E-01 0.17554587E+03</pdfrwt>
<totfact> 0.80061227E+04</totfact>
</mgrwt>
</event>
<event>
 4    1  0.4441180E+000  0.3020503E+03  0.7546771E-02  0.1084220E+00
         21   -1    0    0  501  502  0.00000000000E+00  0.00000000000E+00  0.17152434817E+03  0.17152434817E+03  0.00000000000E+00 0.  1.
         21   -1    0    0  502  503 -0.00000000000E+00 -0.00000000000E+00 -0.57274113289E+03  0.57274113289E+03  0.00000000000E+00 0.  1.
          6    1    1    2  501    0 -0.16880688334E+03  0.18113427642E+03 -0.10123975810E+03  0.31856534428E+03  0.17300000000E+03 0.  1.
         -6    1    1    2    0  503  0.16880688334E+03 -0.18113427642E+03 -0.29997702662E+03  0.42570013678E+03  0.17300000000E+03 0.  1.
<mgrwt>
<rscale>  2 0.30205031E+03</rscale>
<asrwt>0</asrwt>
<pdfrwt beam="1">  1       21 0.26388361E-01 0.30205031E+03</pdfrwt>
<pdfrwt beam="2">  1       21 0.88114020E-01 0.30205031E+03</pdfrwt>
<totfact> 0.14213054E+04</totfact>
</mgrwt>
</event>
<event>
 4    1  0.4441180E+000  0.1756334E+03  0.7546771E-02  0.1172097E+00
         21   -1    0    0  501  502  0.00000000000E+00  0.00000000000E+00  0.34287831752E+02  0.34287831752E+02  0.00000000000E+00 0. -1.
         21   -1    0    0  502  503 -0.00000000000E+00 -0.00000000000E+00 -0.94587346324E+03  0.94587346324E+03  0.00000000000E+00 0. -1.
          6    1    1    2  501    0 -0.21603796935E+02 -0.21245087064E+02 -0.34745547469E+03  0.38932298244E+03  0.17300000000E+03 0.  1.
         -6    1    1    2    0  503  0.21603796935E+02  0.21245087064E+02 -0.56413015679E+03  0.59083831254E+03  0.17300000000E+03 0.  1.
<mgrwt>
<rscale>  2 0.17563336E+03</rscale>
<asrwt>0</asrwt>
<pdfrwt beam="1">  1       21 0.52750515E-02 0.17563336E+03</pdfrwt>
<pdfrwt beam="2">  1       21 0.14551898E+00 0.17563336E+03</pdfrwt>
<totfact> 0.80169665E+04</totfact>
</mgrwt>
</event>
<event>
 4    1  0.4441180E+000  0.2707583E+03  0.7546771E-02  0.1100846E+00
         21   -1    0    0  501  502  0.00000000000E+00  0.00000000000E+00  0.28557313173E+03  0.28557313173E+03  0.00000000000E+00 0.  1.
         21   -1    0    0  502  503 -0.00000000000E+00 -0.00000000000E+00 -0.30630281223E+03  0.30630281223E+03  0.00000000000E+00 0. -1.
          6    1    1    2  501    0  0.16774874610E+03 -0.12345617318E+03  0.10871151276E+03  0.29176747852E+03  0.17300000000E+03 0.  1.
         -6    1    1    2    0  503 -0.16774874610E+03  0.12345617318E+03 -0.12944119326E+03  0.30010846544E+03  0.17300000000E+03 0. -1.
<mgrwt>
<rscale>  2 0.27075832E+03</rscale>
<asrwt>0</asrwt>
<pdfrwt beam="1">  1       21 0.43934328E-01 0.27075832E+03</pdfrwt>
<pdfrwt beam="2">  1       21 0.47123509E-01 0.27075832E+03</pdfrwt>
<totfact> 0.20596779E+04</totfact>
</mgrwt>
</event>
<event>
 4    1  0.4441180E+000  0.1871373E+03  0.7546771E-02  0.1161069E+00
         21   -1    0    0  503  502  0.00000000000E+00  0.00000000000E+00  0.69512669840E+03  0.69512669840E+03  0.00000000000E+00 0.  1.
         21   -1    0    0  501  503 -0.00000000000E+00 -0.00000000000E+00 -0.61795486586E+02  0.61795486586E+02  0.00000000000E+00 0. -1.
          6    1    1    2  501    0 -0.42437683894E+02  0.57362070332E+02  0.15400090113E+03  0.24235643518E+03  0.17300000000E+03 0.  1.
         -6    1    1    2    0  502  0.42437683894E+02 -0.57362070332E+02  0.47933031069E+03  0.51456574980E+03  0.17300000000E+03 0.  1.
<mgrwt>
<rscale>  2 0.18713729E+03</rscale>
<asrwt>0</asrwt>
<pdfrwt beam="1">  1       21 0.10694256E+00 0.18713729E+03</pdfrwt>
<pdfrwt beam="2">  1       21 0.95069984E-02 0.18713729E+03</pdfrwt>
<totfact> 0.62182127E+04</totfact>
</mgrwt>
</event>
<event>
 4    1  0.4441180E+000  0.2801857E+03  0.7546771E-02  0.1095588E+00
         21   -1    0    0  501  502  0.00000000000E+00  0.00000000000E+00  0.12885345887E+03  0.12885345887E+03  0.00000000000E+00 0.  1.
         21   -1    0    0  502  503 -0.00000000000E+00 -0.00000000000E+00 -0.75403122073E+03  0.75403122073E+03  0.00000000000E+00 0. -1.
          6    1    1    2  501    0 -0.19418046532E+03  0.10425432776E+03 -0.50602380063E+03  0.57841516644E+03  0.17300000000E+03 0. -1.
         -6    1    1    2    0  503  0.19418046532E+03 -0.10425432776E+03 -0.11915396123E+03  0.30446951316E+03  0.17300000000E+03 0.  1.
<mgrwt>
<rscale>  2 0.28018568E+03</rscale>
<asrwt>0</asrwt>
<pdfrwt beam="1">  1       21 0.19823609E-01 0.28018568E+03</pdfrwt>
<pdfrwt beam="2">  1       21 0.11600480E+00 0.28018568E+03</pdfrwt>
<totfact> 0.12796273E+04</totfact>
</mgrwt>
</event>
<event>
 4    1  0.4441180E+000  0.3341582E+03  0.7546771E-02  0.1069312E+00
         21   -1    0    0  501  502  0.00000000000E+00  0.00000000000E+00  0.36406398636E+03  0.36406398636E+03  0.00000000000E+00 0.  1.
         21   -1    0    0  502  503 -0.00000000000E+00 -0.00000000000E+00 -0.32124712413E+03  0.32124712413E+03  0.00000000000E+00 0.  1.
          6    1    1    2  501    0  0.28215747090E+03 -0.46041883412E+02  0.94302578150E+02  0.34720983520E+03  0.17300000000E+03 0.  1.
         -6    1    1    2    0  503 -0.28215747090E+03  0.46041883412E+02 -0.51485715917E+02  0.33810127529E+03  0.17300000000E+03 0.  1.
<mgrwt>
<rscale>  2 0.33415819E+03</rscale>
<asrwt>0</asrwt>
<pdfrwt beam="1">  1       21 0.56009844E-01 0.33415819E+03</pdfrwt>
<pdfrwt beam="2">  1       21 0.49422634E-01 0.33415819E+03</pdfrwt>
<totfact> 0.10884631E+04</totfact>
</mgrwt>
</event>
<event>
 4    1  0.4441180E+000  0.1865680E+03  0.7546771E-02  0.1161594E+00
         21   -1    0    0  503  502  0.00000000000E+00  0.00000000000E+00  0.48216399397E+03  0.48216399397E+03  0.00000000000E+00 0. -1.
         21   -1    0    0  501  503 -0.00000000000E+00 -0.00000000000E+00 -0.26939635321E+03  0.26939635321E+03  0.00000000000E+00 0.  1.
          6    1    1    2  501    0 -0.31815128339E+02 -0.62180556363E+02 -0.21512877318E+03  0.28475957057E+03  0.17300000000E+03 0.  1.
         -6    1    1    2    0  502  0.31815128339E+02  0.62180556363E+02  0.42789641394E+03  0.46680077661E+03  0.17300000000E+03 0. -1.
<mgrwt>
<rscale>  2 0.18656801E+03</rscale>
<asrwt>0</asrwt>
<pdfrwt beam="1">  1       21 0.74179076E-01 0.18656801E+03</pdfrwt>
<pdfrwt beam="2">  1       21 0.41445593E-01 0.18656801E+03</pdfrwt>
<totfact> 0.91730467E+03</totfact>
</mgrwt>
</event>
<event>
 4    1  0.4441180E+000  0.1918246E+03  0.7546771E-02  0.1156826E+00
         21   -1    0    0  501  502  0.00000000000E+00  0.00000000000E+00  0.16920506572E+03  0.16920506572E+03  0.00000000000E+00 0.  1.
         21   -1    0    0  502  503 -0.00000000000E+00 -0.00000000000E+00 -0.33858679556E+03  0.33858679556E+03  0.00000000000E+00 0.  1.
          6    1    1    2  501    0 -0.40314072211E+01  0.82773430907E+02 -0.23654493655E+03  0.30454917520E+03  0.17300000000E+03 0.  1.
         -6    1    1    2    0  503  0.40314072211E+01 -0.82773430907E+02  0.67163206715E+02  0.20324268608E+03  0.17300000000E+03 0.  1.
<mgrwt>
<rscale>  2 0.19182464E+03</rscale>
<asrwt>0</asrwt>
<pdfrwt beam="1">  1       21 0.26031549E-01 0.19182464E+03</pdfrwt>
<pdfrwt beam="2">  1       21 0.52090276E-01 0.19182464E+03</pdfrwt>
<totfact> 0.49055585E+04</totfact>
</mgrwt>
</event>
<event>
 4    1  0.4441180E+000  0.1808306E+03  0.7546771E-02  0.1167002E+00
         21   -1    0    0  501  502  0.00000000000E+00  0.00000000000E+00  0.15241171732E+03  0.15241171732E+03  0.00000000000E+00 0. -1.
         21   -1    0    0  502  503 -0.00000000000E+00 -0.00000000000E+00 -0.24718340906E+03  0.24718340906E+03  0.00000000000E+00 0. -1.
          6    1    1    2  501    0  0.18221783950E+02  0.49382860808E+02  0.25211701574E+02  0.18257965453E+03  0.17300000000E+03 0.  1.
         -6    1    1    2    0  503 -0.18221783950E+02 -0.49382860808E+02 -0.11998339331E+03  0.21701547185E+03  0.17300000000E+03 0.  1.
<mgrwt>
<rscale>  2 0.18083058E+03</rscale>
<asrwt>0</asrwt>
<pdfrwt beam="1">  1       21 0.23447956E-01 0.18083058E+03</pdfrwt>
<pdfrwt beam="2">  1       21 0.38028217E-01 0.18083058E+03</pdfrwt>
<totfact> 0.11459324E+05</totfact>
</mgrwt>
</event>
<event>
 4    1  0.4441180E+000  0.1994920E+03  0.7546771E-02  0.1150168E+00
         21   -1    0    0  501  502  0.00000000000E+00  0.00000000000E+00  0.88888660345E+02  0.88888660345E+02  0.00000000000E+00 0.  1.
         21   -1    0    0  502  503 -0.00000000000E+00 -0.00000000000E+00 -0.44796548366E+03  0.44796548366E+03  0.00000000000E+00 0.  1.
          6    1    1    2  501    0 -0.46215979571E+02  0.87932563788E+02 -0.18584775427E+03  0.27264709848E+03  0.17300000000E+03 0.  1.
         -6    1    1    2    0  503  0.46215979571E+02 -0.87932563788E+02 -0.17322906904E+03  0.26420704552E+03  0.17300000000E+03 0.  1.
<mgrwt>
<rscale>  2 0.19949199E+03</rscale>
<asrwt>0</asrwt>
<pdfrwt beam="1">  1       21 0.13675178E-01 0.19949199E+03</pdfrwt>
<pdfrwt beam="2">  1       21 0.68917768E-01 0.19949199E+03</pdfrwt>
<totfact> 0.88704045E+04</totfact>
</mgrwt>
</event>
<event>
 4    1  0.4441180E+000  0.2449545E+03  0.7546771E-02  0.1116536E+00
         21   -1    0    0  503  502  0.00000000000E+00  0.00000000000E+00  0.17951498930E+03  0.17951498930E+03  0.00000000000E+00 0. -1.
         21   -1    0    0  501  503 -0.00000000000E+00 -0.00000000000E+00 -0.33428139915E+03  0.33428139915E+03  0.00000000000E+00 0.  1.
          6    1    1    2  501    0  0.13588794086E+03  0.10774114677E+03 -0.74850056041E+02  0.25613515586E+03  0.17300000000E+03 0. -1.
         -6    1    1    2    0  502 -0.13588794086E+03 -0.10774114677E+03 -0.79916353810E+02  0.25766123260E+03  0.17300000000E+03 0.  1.
<mgrwt>
<rscale>  2 0.24495446E+03</rscale>
<asrwt>0</asrwt>
<pdfrwt beam="1">  1       21 0.27617691E-01 0.24495446E+03</pdfrwt>
<pdfrwt beam="2">  1       21 0.51427907E-01 0.24495446E+03</pdfrwt>
<totfact> 0.43871798E+04</totfact>
</mgrwt>
</event>
<event>
 4    1  0.4441180E+000  0.3609268E+03  0.7546771E-02  0.1058218E+00
         21   -1    0    0  501  502  0.00000000000E+00  0.00000000000E+00  0.59641033562E+03  0.59641033562E+03  0.00000000000E+00 0.  1.
         21   -1    0    0  502  503 -0.00000000000E+00 -0.00000000000E+00 -0.66058242139E+03  0.66058242139E+03  0.00000000000E+00 0. -1.
          6    1    1    2  501    0 -0.28964634290E+03 -0.12823464929E+03  0.48211154723E+03  0.60224552568E+03  0.17300000000E+03 0.  1.
         -6    1    1    2    0  503  0.28964634290E+03  0.12823464929E+03 -0.54628363300E+03  0.65474723132E+03  0.17300000000E+03 0. -1.
<mgrwt>
<rscale>  2 0.36092676E+03</rscale>
<asrwt>0</asrwt>
<pdfrwt beam="1">  1       21 0.91755437E-01 0.36092676E+03</pdfrwt>
<pdfrwt beam="2">  1       21 0.10162806E+00 0.36092676E+03</pdfrwt>
<totfact> 0.69838912E+02</totfact>
</mgrwt>
</event>
<event>
 4    1  0.4441180E+000  0.2157072E+03  0.7546771E-02  0.1137125E+00
         21   -1    0    0  501  502  0.00000000000E+00  0.00000000000E+00  0.42632180952E+03  0.42632180952E+03  0.00000000000E+00 0.  1.
         21   -1    0    0  502  503 -0.00000000000E+00 -0.00000000000E+00 -0.10976619046E+03  0.10976619046E+03  0.00000000000E+00 0.  1.
          6    1    1    2  501    0  0.96660923944E+02  0.85189475057E+02  0.17849208351E+03  0.27998036494E+03  0.17300000000E+03 0.  1.
         -6    1    1    2    0  503 -0.96660923944E+02 -0.85189475057E+02  0.13806353555E+03  0.25610763504E+03  0.17300000000E+03 0.  1.
<mgrwt>
<rscale>  2 0.21570716E+03</rscale>
<asrwt>0</asrwt>
<pdfrwt beam="1">  1       21 0.65587970E-01 0.21570716E+03</pdfrwt>
<pdfrwt beam="2">  1       21 0.16887106E-01 0.21570716E+03</pdfrwt>
<totfact> 0.66799060E+04</totfact>
</mgrwt>
</event>
<event>
 4    1  0.4441180E+000  0.5501272E+03  0.7546771E-02  0.1001465E+00
         21   -1    0    0  501  502  0.00000000000E+00  0.00000000000E+00  0.45948444638E+03  0.45948444638E+03  0.00000000000E+00 0. -1.
         21   -1    0    0  502  503 -0.00000000000E+00 -0.00000000000E+00 -0.10430590599E+04  0.10430590599E+04  0.00000000000E+00 0.  1.
          6    1    1    2  501    0 -0.40153603690E+03 -0.33388575537E+03  0.16429041356E+03  0.57413519884E+03  0.17300000000E+03 0. -1.
         -6    1    1    2    0  503  0.40153603690E+03  0.33388575537E+03 -0.74786502708E+03  0.92840830742E+03  0.17300000000E+03 0.  1.
<mgrwt>
<rscale>  2 0.55012715E+03</rscale>
<asrwt>0</asrwt>
<pdfrwt beam="1">  1       21 0.70689916E-01 0.55012715E+03</pdfrwt>
<pdfrwt beam="2">  1       21 0.16047062E+00 0.55012715E+03</pdfrwt>
<totfact> 0.35823375E+02</totfact>
</mgrwt>
</event>
<event>
 4    1  0.4441180E+000  0.2576930E+03  0.7546771E-02  0.1108537E+00
         21   -1    0    0  503  502  0.00000000000E+00  0.00000000000E+00  0.23508914537E+03  0.23508914537E+03  0.00000000000E+00 0. -1.
         21   -1    0    0  501  503 -0.00000000000E+00 -0.00000000000E+00 -0.30960865339E+03  0.30960865339E+03  0.00000000000E+00 0.  1.
          6    1    1    2  501    0 -0.17287314757E+03 -0.81188383751E+02  0.43373019016E+02  0.26131761820E+03  0.17300000000E+03 0.  1.
         -6    1    1    2    0  502  0.17287314757E+03  0.81188383751E+02 -0.11789252704E+03  0.28338018056E+03  0.17300000000E+03 0.  1.
<mgrwt>
<rscale>  2 0.25769299E+03</rscale>
<asrwt>0</asrwt>
<pdfrwt beam="1">  1       21 0.36167561E-01 0.25769299E+03</pdfrwt>
<pdfrwt beam="2">  1       21 0.47632100E-01 0.25769299E+03</pdfrwt>
<totfact> 0.30092590E+04</totfact>
</mgrwt>
</event>
<event>
 4    1  0.4441180E+000  0.2071607E+03  0.7546771E-02  0.1143834E+00
         21   -1    0    0  503  502  0.00000000000E+00  0.00000000000E+00  0.71996180961E+03  0.71996180961E+03  0.00000000000E+00 0. -1.
         21   -1    0    0  501  503 -0.00000000000E+00 -0.00000000000E+00 -0.22988216245E+03  0.22988216245E+03  0.00000000000E+00 0. -1.
          6    1    1    2  501    0 -0.11938946164E+02  0.11333141119E+03 -0.16369712839E+03  0.26403086380E+03  0.17300000000E+03 0. -1.
         -6    1    1    2    0  502  0.11938946164E+02 -0.11333141119E+03  0.65377677555E+03  0.68581310825E+03  0.17300000000E+03 0. -1.
<mgrwt>
<rscale>  2 0.20716068E+03</rscale>
<asrwt>0</asrwt>
<pdfrwt beam="1">  1       21 0.11076335E+00 0.20716068E+03</pdfrwt>
<pdfrwt beam="2">  1       21 0.35366487E-01 0.20716068E+03</pdfrwt>
<totfact> 0.48939621E+03</totfact>
</mgrwt>
</event>
<event>
 4    1  0.4441180E+000  0.1909565E+03  0.7546771E-02  0.1157601E+00
         21   -1    0    0  503  502  0.00000000000E+00  0.00000000000E+00  0.10137482903E+04  0.10137482903E+04  0.00000000000E+00 0.  1.
         21   -1    0    0  501  503 -0.00000000000E+00 -0.00000000000E+00 -0.39763355741E+02  0.39763355741E+02  0.00000000000E+00 0.  1.
          6    1    1    2  501    0 -0.62515935887E+02  0.51255518960E+02  0.32429214993E+03  0.37633730743E+03  0.17300000000E+03 0.  1.
         -6    1    1    2    0  502  0.62515935887E+02 -0.51255518960E+02  0.64969278466E+03  0.67717433864E+03  0.17300000000E+03 0.  1.
<mgrwt>
<rscale>  2 0.19095646E+03</rscale>
<asrwt>0</asrwt>
<pdfrwt beam="1">  1       21 0.15596126E+00 0.19095646E+03</pdfrwt>
<pdfrwt beam="2">  1       21 0.61174401E-02 0.19095646E+03</pdfrwt>
<totfact> 0.51471587E+04</totfact>
</mgrwt>
</event>
<event>
 4    1  0.4441180E+000  0.1801609E+03  0.7546771E-02  0.1167647E+00
         21   -1    0    0  503  502  0.00000000000E+00  0.00000000000E+00  0.76245664820E+02  0.76245664820E+02  0.00000000000E+00 0. -1.
         21   -1    0    0  501  503 -0.00000000000E+00 -0.00000000000E+00 -0.48542599629E+03  0.48542599629E+03  0.00000000000E+00 0.  1.
          6    1    1    2  501    0 -0.30998074056E+02 -0.39599052357E+02 -0.30309642607E+03  0.35259808428E+03  0.17300000000E+03 0.  1.
         -6    1    1    2    0  502  0.30998074056E+02  0.39599052357E+02 -0.10608390540E+03  0.20907357683E+03  0.17300000000E+03 0. -1.
<mgrwt>
<rscale>  2 0.18016094E+03</rscale>
<asrwt>0</asrwt>
<pdfrwt beam="1">  1       21 0.11730102E-01 0.18016094E+03</pdfrwt>
<pdfrwt beam="2">  1       21 0.74680923E-01 0.18016094E+03</pdfrwt>
<totfact> 0.98583195E+04</totfact>
</mgrwt>
</event>
<event>
 4    1  0.4441180E+000  0.1768257E+03  0.7546771E-02  0.1170911E+00
         21   -1    0    0  501  502  0.00000000000E+00  0.00000000000E+00  0.17307370999E+03  0.17307370999E+03  0.00000000000E+00 0. -1.
         21   -1    0    0  502  503 -0.00000000000E+00 -0.00000000000E+00 -0.22229315594E+03  0.22229315594E+03  0.00000000000E+00 0. -1.
          6    1    1    2  501    0  0.36461422114E+02  0.29800651276E+01 -0.11016214918E+03  0.20833390315E+03  0.17300000000E+03 0. -1.
         -6    1    1    2    0  503 -0.36461422114E+02 -0.29800651276E+01  0.60942703227E+02  0.18703296278E+03  0.17300000000E+03 0. -1.
<mgrwt>
<rscale>  2 0.17682567E+03</rscale>
<asrwt>0</asrwt>
<pdfrwt beam="1">  1       21 0.26626725E-01 0.17682567E+03</pdfrwt>
<pdfrwt beam="2">  1       21 0.34198947E-01 0.17682567E+03</pdfrwt>
<totfact> 0.11123644E+05</totfact>
</mgrwt>
</event>
<event>
 4    1  0.4441180E+000  0.2174639E+03  0.7546771E-02  0.1135788E+00
         21   -1    0    0  503  502  0.00000000000E+00  0.00000000000E+00  0.85892966951E+02  0.85892966951E+02  0.00000000000E+00 0.  1.
         21   -1    0    0  501  503 -0.00000000000E+00 -0.00000000000E+00 -0.78200975364E+03  0.78200975364E+03  0.00000000000E+00 0.  1.
          6    1    1    2  501    0 -0.11308333361E+03  0.67629203091E+02 -0.58413281717E+03  0.62329904344E+03  0.17300000000E+03 0.  1.
         -6    1    1    2    0  502  0.11308333361E+03 -0.67629203091E+02 -0.11198396952E+03  0.24460367716E+03  0.17300000000E+03 0.  1.
<mgrwt>
<rscale>  2 0.21746390E+03</rscale>
<asrwt>0</asrwt>
<pdfrwt beam="1">  1       21 0.13214303E-01 0.21746390E+03</pdfrwt>
<pdfrwt beam="2">  1       21 0.12030919E+00 0.21746390E+03</pdfrwt>
<totfact> 0.25519515E+04</totfact>
</mgrwt>
</event>
<event>
 4    1  0.4441180E+000  0.1737822E+03  0.7546771E-02  0.1173960E+00
         21   -1    0    0  501  502  0.00000000000E+00  0.00000000000E+00  0.82922713599E+02  0.82922713599E+02  0.00000000000E+00 0. -1.
         21   -1    0    0  502  503 -0.00000000000E+00 -0.00000000000E+00 -0.40729277551E+03  0.40729277551E+03  0.00000000000E+00 0. -1.
          6    1    1    2  501    0  0.16180885376E+02  0.30683594499E+01 -0.82455526594E+02  0.19235163048E+03  0.17300000000E+03 0. -1.
         -6    1    1    2    0  503 -0.16180885376E+02 -0.30683594499E+01 -0.24191453532E+03  0.29786385863E+03  0.17300000000E+03 0. -1.
<mgrwt>
<rscale>  2 0.17378215E+03</rscale>
<asrwt>0</asrwt>
<pdfrwt beam="1">  1       21 0.12757340E-01 0.17378215E+03</pdfrwt>
<pdfrwt beam="2">  1       21 0.62660428E-01 0.17378215E+03</pdfrwt>
<totfact> 0.12493649E+05</totfact>
</mgrwt>
</event>
<event>
 4    1  0.4441180E+000  0.1956237E+03  0.7546771E-02  0.1153485E+00
         21   -1    0    0  503  502  0.00000000000E+00  0.00000000000E+00  0.75262033236E+02  0.75262033236E+02  0.00000000000E+00 0. -1.
         21   -1    0    0  501  503 -0.00000000000E+00 -0.00000000000E+00 -0.64189717084E+03  0.64189717084E+03  0.00000000000E+00 0.  1.
          6    1    1    2  501    0 -0.55109804292E+02 -0.72818532101E+02 -0.44680030365E+03  0.48774905483E+03  0.17300000000E+03 0.  1.
         -6    1    1    2    0  502  0.55109804292E+02  0.72818532101E+02 -0.11983483395E+03  0.22941014924E+03  0.17300000000E+03 0. -1.
<mgrwt>
<rscale>  2 0.19562369E+03</rscale>
<asrwt>0</asrwt>
<pdfrwt beam="1">  1       21 0.11578774E-01 0.19562369E+03</pdfrwt>
<pdfrwt beam="2">  1       21 0.98753411E-01 0.19562369E+03</pdfrwt>
<totfact> 0.52820467E+04</totfact>
</mgrwt>
</event>
<event>
 4    1  0.4441180E+000  0.1857125E+03  0.7546771E-02  0.1162386E+00
         21   -1    0    0  501  502  0.00000000000E+00  0.00000000000E+00  0.10205008249E+04  0.10205008249E+04  0.00000000000E+00 0.  1.
         21   -1    0    0  502  503 -0.00000000000E+00 -0.00000000000E+00 -0.33798105336E+02  0.33798105336E+02  0.00000000000E+00 0.  1.
          6    1    1    2  501    0  0.92109530763E+01 -0.66897633779E+02  0.48948094625E+03  0.52352720255E+03  0.17300000000E+03 0.  1.
         -6    1    1    2    0  503 -0.92109530763E+01  0.66897633779E+02  0.49722177333E+03  0.53077172771E+03  0.17300000000E+03 0.  1.
<mgrwt>
<rscale>  2 0.18571251E+03</rscale>
<asrwt>0</asrwt>
<pdfrwt beam="1">  1       21 0.15700010E+00 0.18571251E+03</pdfrwt>
<pdfrwt beam="2">  1       21 0.51997093E-02 0.18571251E+03</pdfrwt>
<totfact> 0.66904881E+04</totfact>
</mgrwt>
</event>
<event>
 4    1  0.4441180E+000  0.2148575E+03  0.7546771E-02  0.1137776E+00
         21   -1    0    0  503  502  0.00000000000E+00  0.00000000000E+00  0.13024171298E+04  0.13024171298E+04  0.00000000000E+00 0. -1.
         21   -1    0    0  501  503 -0.00000000000E+00 -0.00000000000E+00 -0.47209211735E+02  0.47209211735E+02  0.00000000000E+00 0. -1.
          6    1    1    2  501    0  0.10906740230E+03 -0.65871560322E+02  0.29073773700E+03  0.36151375136E+03  0.17300000000E+03 0. -1.
         -6    1    1    2    0  502 -0.10906740230E+03  0.65871560322E+02  0.96447018105E+03  0.98811259016E+03  0.17300000000E+03 0. -1.
<mgrwt>
<rscale>  2 0.21485754E+03</rscale>
<asrwt>0</asrwt>
<pdfrwt beam="1">  1       21 0.20037184E+00 0.21485754E+03</pdfrwt>
<pdfrwt beam="2">  1       21 0.72629567E-02 0.21485754E+03</pdfrwt>
<totfact> 0.18638832E+04</totfact>
</mgrwt>
</event>
<event>
 4    1  0.4441180E+000  0.2115675E+03  0.7546771E-02  0.1140331E+00
         21   -1    0    0  501  502  0.00000000000E+00  0.00000000000E+00  0.62606815466E+02  0.62606815466E+02  0.00000000000E+00 0.  1.
         21   -1    0    0  502  503 -0.00000000000E+00 -0.00000000000E+00 -0.71738339931E+03  0.71738339931E+03  0.00000000000E+00 0. -1.
          6    1    1    2  501    0 -0.47840522991E+02  0.11199596171E+03 -0.30467956823E+03  0.37093186757E+03  0.17300000000E+03 0. -1.
         -6    1    1    2    0  503  0.47840522991E+02 -0.11199596171E+03 -0.35009701561E+03  0.40905834721E+03  0.17300000000E+03 0. -1.
<mgrwt>
<rscale>  2 0.21156751E+03</rscale>
<asrwt>0</asrwt>
<pdfrwt beam="1">  1       21 0.96318174E-02 0.21156751E+03</pdfrwt>
<pdfrwt beam="2">  1       21 0.11036668E+00 0.21156751E+03</pdfrwt>
<totfact> 0.55635924E+04</totfact>
</mgrwt>
</event>
<event>
 4    1  0.4441180E+000  0.1985587E+03  0.7546771E-02  0.1150961E+00
         21   -1    0    0  501  502  0.00000000000E+00  0.00000000000E+00  0.52004086243E+03  0.52004086243E+03  0.00000000000E+00 0.  1.
         21   -1    0    0  502  503 -0.00000000000E+00 -0.00000000000E+00 -0.98281846375E+02  0.98281846375E+02  0.00000000000E+00 0. -1.
          6    1    1    2  501    0 -0.97267198764E+02  0.59707311110E+01  0.35870336048E+03  0.40999226627E+03  0.17300000000E+03 0.  1.
         -6    1    1    2    0  503  0.97267198764E+02 -0.59707311110E+01  0.63055655577E+02  0.20833044253E+03  0.17300000000E+03 0. -1.
<mgrwt>
<rscale>  2 0.19855870E+03</rscale>
<asrwt>0</asrwt>
<pdfrwt beam="1">  1       21 0.80006285E-01 0.19855870E+03</pdfrwt>
<pdfrwt beam="2">  1       21 0.15120284E-01 0.19855870E+03</pdfrwt>
<totfact> 0.53009836E+04</totfact>
</mgrwt>
</event>
<event>
 4    1  0.4441180E+000  0.1986412E+03  0.7546771E-02  0.1150891E+00
         21   -1    0    0  501  502  0.00000000000E+00  0.00000000000E+00  0.42082635910E+02  0.42082635910E+02  0.00000000000E+00 0.  1.
         21   -1    0    0  502  503 -0.00000000000E+00 -0.00000000000E+00 -0.10599840125E+04  0.10599840125E+04  0.00000000000E+00 0. -1.
          6    1    1    2  501    0  0.72298659697E+02  0.65591425914E+02 -0.32174420279E+03  0.37812387305E+03  0.17300000000E+03 0.  1.
         -6    1    1    2    0  503 -0.72298659697E+02 -0.65591425914E+02 -0.69615717376E+03  0.72394277531E+03  0.17300000000E+03 0.  1.
<mgrwt>
<rscale>  2 0.19864121E+03</rscale>
<asrwt>0</asrwt>
<pdfrwt beam="1">  1       21 0.64742521E-02 0.19864121E+03</pdfrwt>
<pdfrwt beam="2">  1       21 0.16307445E+00 0.19864121E+03</pdfrwt>
<totfact> 0.41218856E+04</totfact>
</mgrwt>
</event>
<event>
 4    1  0.4441180E+000  0.2020613E+03  0.7546771E-02  0.1148011E+00
         21   -1    0    0  501  502  0.00000000000E+00  0.00000000000E+00  0.33453969454E+03  0.33453969454E+03  0.00000000000E+00 0.  1.
         21   -1    0    0  502  503 -0.00000000000E+00 -0.00000000000E+00 -0.12212377911E+03  0.12212377911E+03  0.00000000000E+00 0.  1.
          6    1    1    2  501    0 -0.99317441771E+02  0.32183787112E+02  0.10039259954E+03  0.22562673697E+03  0.17300000000E+03 0. -1.
         -6    1    1    2    0  503  0.99317441771E+02 -0.32183787112E+02  0.11202331590E+03  0.23103673668E+03  0.17300000000E+03 0. -1.
<mgrwt>
<rscale>  2 0.20206125E+03</rscale>
<asrwt>0</asrwt>
<pdfrwt beam="1">  1       21 0.51467645E-01 0.20206125E+03</pdfrwt>
<pdfrwt beam="2">  1       21 0.18788274E-01 0.20206125E+03</pdfrwt>
<totfact> 0.92655260E+04</totfact>
</mgrwt>
</event>
<event>
 4    1  0.4441180E+000  0.1942875E+03  0.7546771E-02  0.1154650E+00
         21   -1    0    0  503  502  0.00000000000E+00  0.00000000000E+00  0.26183488383E+03  0.26183488383E+03  0.00000000000E+00 0.  1.
         21   -1    0    0  501  503 -0.00000000000E+00 -0.00000000000E+00 -0.18177804326E+03  0.18177804326E+03  0.00000000000E+00 0.  1.
          6    1    1    2  501    0  0.55081801533E+02  0.69170869982E+02 -0.60866331219E+02  0.20359843907E+03  0.17300000000E+03 0.  1.
         -6    1    1    2    0  502 -0.55081801533E+02 -0.69170869982E+02  0.14092317179E+03  0.24001448803E+03  0.17300000000E+03 0.  1.
<mgrwt>
<rscale>  2 0.19428745E+03</rscale>
<asrwt>0</asrwt>
<pdfrwt beam="1">  1       21 0.40282290E-01 0.19428745E+03</pdfrwt>
<pdfrwt beam="2">  1       21 0.27965853E-01 0.19428745E+03</pdfrwt>
<totfact> 0.72474658E+04</totfact>
</mgrwt>
</event>
<event>
 4    1  0.4441180E+000  0.3486494E+03  0.7546771E-02  0.1063171E+00
         21   -1    0    0  503  502  0.00000000000E+00  0.00000000000E+00  0.31612393394E+03  0.31612393394E+03  0.00000000000E+00 0. -1.
         21   -1    0    0  501  503 -0.00000000000E+00 -0.00000000000E+00 -0.79786965879E+03  0.79786965879E+03  0.00000000000E+00 0. -1.
          6    1    1    2  501    0  0.21653058753E+03  0.21152288215E+03 -0.64178090276E+03  0.73036918894E+03  0.17300000000E+03 0. -1.
         -6    1    1    2    0  502 -0.21653058753E+03 -0.21152288215E+03  0.16003517791E+03  0.38362440379E+03  0.17300000000E+03 0. -1.
<mgrwt>
<rscale>  2 0.34864943E+03</rscale>
<asrwt>0</asrwt>
<pdfrwt beam="1">  1       21 0.48634452E-01 0.34864943E+03</pdfrwt>
<pdfrwt beam="2">  1       21 0.12274918E+00 0.34864943E+03</pdfrwt>
<totfact> 0.18083652E+03</totfact>
</mgrwt>
</event>
<event>
 4    1  0.4441180E+000  0.1871805E+03  0.7546771E-02  0.1161029E+00
         21   -1    0    0  503  502  0.00000000000E+00  0.00000000000E+00  0.59736517127E+03  0.59736517127E+03  0.00000000000E+00 0.  1.
         21   -1    0    0  501  503 -0.00000000000E+00 -0.00000000000E+00 -0.62345744581E+02  0.62345744581E+02  0.00000000000E+00 0.  1.
          6    1    1    2  501    0  0.28532713815E+02 -0.65524202354E+02  0.18721887081E+03  0.26474033021E+03  0.17300000000E+03 0.  1.
         -6    1    1    2    0  502 -0.28532713815E+02  0.65524202354E+02  0.34780055588E+03  0.39497058564E+03  0.17300000000E+03 0.  1.
<mgrwt>
<rscale>  2 0.18718049E+03</rscale>
<asrwt>0</asrwt>
<pdfrwt beam="1">  1       21 0.91902330E-01 0.18718049E+03</pdfrwt>
<pdfrwt beam="2">  1       21 0.95916534E-02 0.18718049E+03</pdfrwt>
<totfact> 0.87611352E+04</totfact>
</mgrwt>
</event>
<event>
 4    1  0.4441180E+000  0.1910639E+03  0.7546771E-02  0.1157505E+00
         21   -1    0    0  501  502  0.00000000000E+00  0.00000000000E+00  0.34427720204E+03  0.34427720204E+03  0.00000000000E+00 0.  1.
         21   -1    0    0  502  503 -0.00000000000E+00 -0.00000000000E+00 -0.12890586238E+03  0.12890586238E+03  0.00000000000E+00 0.  1.
          6    1    1    2  501    0 -0.80056131225E+02  0.12939497774E+02  0.20734194244E+03  0.28195052021E+03  0.17300000000E+03 0.  1.
         -6    1    1    2    0  503  0.80056131225E+02 -0.12939497774E+02  0.80293972175E+01  0.19123254422E+03  0.17300000000E+03 0.  1.
<mgrwt>
<rscale>  2 0.19106390E+03</rscale>
<asrwt>0</asrwt>
<pdfrwt beam="1">  1       21 0.52965723E-01 0.19106390E+03</pdfrwt>
<pdfrwt beam="2">  1       21 0.19831671E-01 0.19106390E+03</pdfrwt>
<totfact> 0.79252673E+04</totfact>
</mgrwt>
</event>
<event>
 4    1  0.4441180E+000  0.2085112E+03  0.7546771E-02  0.1142750E+00
         21   -1    0    0  501  502  0.00000000000E+00  0.00000000000E+00  0.10552434627E+04  0.10552434627E+04  0.00000000000E+00 0. -1.
         21   -1    0    0  502  503 -0.00000000000E+00 -0.00000000000E+00 -0.47867601197E+02  0.47867601197E+02  0.00000000000E+00 0.  1.
          6    1    1    2  501    0  0.34524016178E+02 -0.11115757804E+03  0.70952610964E+03  0.73952972564E+03  0.17300000000E+03 0. -1.
         -6    1    1    2    0  503 -0.34524016178E+02  0.11115757804E+03  0.29784975191E+03  0.36358133831E+03  0.17300000000E+03 0.  1.
<mgrwt>
<rscale>  2 0.20851119E+03</rscale>
<asrwt>0</asrwt>
<pdfrwt beam="1">  1       21 0.16234513E+00 0.20851119E+03</pdfrwt>
<pdfrwt beam="2">  1       21 0.73642471E-02 0.20851119E+03</pdfrwt>
<totfact> 0.33197117E+04</totfact>
</mgrwt>
</event>
<event>
 4    1  0.4441180E+000  0.1757417E+03  0.7546771E-02  0.1171989E+00
         21   -1    0    0  503  502  0.00000000000E+00  0.00000000000E+00  0.46064022976E+03  0.46064022976E+03  0.00000000000E+00 0. -1.
         21   -1    0    0  501  503 -0.00000000000E+00 -0.00000000000E+00 -0.13452624952E+03  0.13452624952E+03  0.00000000000E+00 0. -1.
          6    1    1    2  501    0  0.26016676454E+02 -0.16712103780E+02 -0.47701833587E+02  0.18210059526E+03  0.17300000000E+03 0. -1.
         -6    1    1    2    0  502 -0.26016676454E+02  0.16712103780E+02  0.37381581384E+03  0.41306588402E+03  0.17300000000E+03 0. -1.
<mgrwt>
<rscale>  2 0.17574175E+03</rscale>
<asrwt>0</asrwt>
<pdfrwt beam="1">  1       21 0.70867727E-01 0.17574175E+03</pdfrwt>
<pdfrwt beam="2">  1       21 0.20696346E-01 0.17574175E+03</pdfrwt>
<totfact> 0.39383461E+04</totfact>
</mgrwt>
</event>
<event>
 4    1  0.4441180E+000  0.3101383E+03  0.7546771E-02  0.1080280E+00
         21   -1    0    0  503  502  0.00000000000E+00  0.00000000000E+00  0.39579814610E+03  0.39579814610E+03  0.00000000000E+00 0.  1.
         21   -1    0    0  501  503 -0.00000000000E+00 -0.00000000000E+00 -0.12615981774E+04  0.12615981774E+04  0.00000000000E+00 0. -1.
          6    1    1    2  501    0 -0.20408388709E+03 -0.15686465180E+03 -0.11775181906E+04  0.12176760001E+04  0.17300000000E+03 0. -1.
         -6    1    1    2    0  502  0.20408388709E+03  0.15686465180E+03  0.31171815933E+03  0.43972032340E+03  0.17300000000E+03 0.  1.
<mgrwt>
<rscale>  2 0.31013828E+03</rscale>
<asrwt>0</asrwt>
<pdfrwt beam="1">  1       21 0.60892021E-01 0.31013828E+03</pdfrwt>
<pdfrwt beam="2">  1       21 0.19409203E+00 0.31013828E+03</pdfrwt>
<totfact> 0.32791398E+02</totfact>
</mgrwt>
</event>
<event>
 4    1  0.4441180E+000  0.2403704E+03  0.7546771E-02  0.1119546E+00
         21   -1    0    0  501  502  0.00000000000E+00  0.00000000000E+00  0.13902256012E+03  0.13902256012E+03  0.00000000000E+00 0. -1.
         21   -1    0    0  502  503 -0.00000000000E+00 -0.00000000000E+00 -0.46524451628E+03  0.46524451628E+03  0.00000000000E+00 0.  1.
          6    1    1    2  501    0 -0.84864873104E+02 -0.14369016659E+03 -0.64417214745E+02  0.24885234220E+03  0.17300000000E+03 0. -1.
         -6    1    1    2    0  503  0.84864873104E+02  0.14369016659E+03 -0.26180474142E+03  0.35541473420E+03  0.17300000000E+03 0.  1.
<mgrwt>
<rscale>  2 0.24037036E+03</rscale>
<asrwt>0</asrwt>
<pdfrwt beam="1">  1       21 0.21388086E-01 0.24037036E+03</pdfrwt>
<pdfrwt beam="2">  1       21 0.71576080E-01 0.24037036E+03</pdfrwt>
<totfact> 0.35061097E+04</totfact>
</mgrwt>
</event>
<event>
 4    1  0.4441180E+000  0.1814317E+03  0.7546771E-02  0.1166425E+00
         21   -1    0    0  503  502  0.00000000000E+00  0.00000000000E+00  0.19435638008E+03  0.19435638008E+03  0.00000000000E+00 0.  1.
         21   -1    0    0  501  503 -0.00000000000E+00 -0.00000000000E+00 -0.29524826281E+03  0.29524826281E+03  0.00000000000E+00 0.  1.
          6    1    1    2  501    0 -0.18687497481E+02  0.51373381199E+02 -0.21029253275E+03  0.27774159967E+03  0.17300000000E+03 0.  1.
         -6    1    1    2    0  502  0.18687497481E+02 -0.51373381199E+02  0.10940065002E+03  0.21186304322E+03  0.17300000000E+03 0.  1.
<mgrwt>
<rscale>  2 0.18143166E+03</rscale>
<asrwt>0</asrwt>
<pdfrwt beam="1">  1       21 0.29900982E-01 0.18143166E+03</pdfrwt>
<pdfrwt beam="2">  1       21 0.45422809E-01 0.18143166E+03</pdfrwt>
<totfact> 0.50118012E+04</totfact>
</mgrwt>
</event>
<event>
 4    1  0.4441180E+000  0.2574532E+03  0.7546771E-02  0.1108683E+00
         21   -1    0    0  501  502  0.00000000000E+00  0.00000000000E+00  0.11857556488E+03  0.11857556488E+03  0.00000000000E+00 0. -1.
         21   -1    0    0  502  503 -0.00000000000E+00 -0.00000000000E+00 -0.77624410165E+03  0.77624410165E+03  0.00000000000E+00 0.  1.
          6    1    1    2  501    0  0.18280152580E+03 -0.54191921631E+02 -0.92136768037E+02  0.27344349733E+03  0.17300000000E+03 0. -1.
         -6    1    1    2    0  503 -0.18280152580E+03  0.54191921631E+02 -0.56553176874E+03  0.62137616920E+03  0.17300000000E+03 0.  1.
<mgrwt>
<rscale>  2 0.25745322E+03</rscale>
<asrwt>0</asrwt>
<pdfrwt beam="1">  1       21 0.18242395E-01 0.25745322E+03</pdfrwt>
<pdfrwt beam="2">  1       21 0.11942217E+00 0.25745322E+03</pdfrwt>
<totfact> 0.14075049E+04</totfact>
</mgrwt>
</event>
<event>
 4    1  0.4441180E+000  0.1788272E+03  0.7546771E-02  0.1168943E+00
         21   -1    0    0  503  502  0.00000000000E+00  0.00000000000E+00  0.17534370611E+03  0.17534370611E+03  0.00000000000E+00 0.  1.
         21   -1    0    0  501  503 -0.00000000000E+00 -0.00000000000E+00 -0.19409860667E+03  0.19409860667E+03  0.00000000000E+00 0.  1.
          6    1    1    2  501    0 -0.33386436846E+01 -0.45155462505E+02  0.36011049298E+02  0.18241698936E+03  0.17300000000E+03 0. -1.
         -6    1    1    2    0  502  0.33386436846E+01  0.45155462505E+02 -0.54765949866E+02  0.18702532342E+03  0.17300000000E+03 0. -1.
<mgrwt>
<rscale>  2 0.17882719E+03</rscale>
<asrwt>0</asrwt>
<pdfrwt beam="1">  1       21 0.26975955E-01 0.17882719E+03</pdfrwt>
<pdfrwt beam="2">  1       21 0.29861324E-01 0.17882719E+03</pdfrwt>
<totfact> 0.14141473E+05</totfact>
</mgrwt>
</event>
<event>
 4    1  0.4441180E+000  0.1841373E+03  0.7546771E-02  0.1163858E+00
         21   -1    0    0  501  502  0.00000000000E+00  0.00000000000E+00  0.62235841400E+02  0.62235841400E+02  0.00000000000E+00 0. -1.
         21   -1    0    0  502  503 -0.00000000000E+00 -0.00000000000E+00 -0.54611254413E+03  0.54611254413E+03  0.00000000000E+00 0.  1.
          6    1    1    2  501    0  0.24995981468E+02  0.57902879876E+02 -0.22706796812E+03  0.29234637801E+03  0.17300000000E+03 0. -1.
         -6    1    1    2    0  503 -0.24995981468E+02 -0.57902879876E+02 -0.25680873461E+03  0.31600200753E+03  0.17300000000E+03 0.  1.
<mgrwt>
<rscale>  2 0.18413729E+03</rscale>
<asrwt>0</asrwt>
<pdfrwt beam="1">  1       21 0.95747447E-02 0.18413729E+03</pdfrwt>
<pdfrwt beam="2">  1       21 0.84017315E-01 0.18413729E+03</pdfrwt>
<totfact> 0.10816042E+05</totfact>
</mgrwt>
</event>
<event>
 4    1  0.4441180E+000  0.1959828E+03  0.7546771E-02  0.1153173E+00
         21   -1    0    0  501  502  0.00000000000E+00  0.00000000000E+00  0.57212681506E+03  0.57212681506E+03  0.00000000000E+00 0.  1.
         21   -1    0    0  502  503 -0.00000000000E+00 -0.00000000000E+00 -0.87154618891E+02  0.87154618891E+02  0.00000000000E+00 0.  1.
          6    1    1    2  501    0  0.88180009192E+02  0.26543499845E+02  0.40047708561E+03  0.44586003129E+03  0.17300000000E+03 0.  1.
         -6    1    1    2    0  503 -0.88180009192E+02 -0.26543499845E+02  0.84495110560E+02  0.21342140266E+03  0.17300000000E+03 0.  1.
<mgrwt>
<rscale>  2 0.19598283E+03</rscale>
<asrwt>0</asrwt>
<pdfrwt beam="1">  1       21 0.88019508E-01 0.19598283E+03</pdfrwt>
<pdfrwt beam="2">  1       21 0.13408403E-01 0.19598283E+03</pdfrwt>
<totfact> 0.53082096E+04</totfact>
</mgrwt>
</event>
<event>
 4    1  0.4441180E+000  0.2655747E+03  0.7546771E-02  0.1103839E+00
         21   -1    0    0  501  502  0.00000000000E+00  0.00000000000E+00  0.10490400097E+03  0.10490400097E+03  0.00000000000E+00 0.  1.
         21   -1    0    0  502  503 -0.00000000000E+00 -0.00000000000E+00 -0.67536838502E+03  0.67536838502E+03  0.00000000000E+00 0. -1.
          6    1    1    2  501    0  0.10666486144E+03  0.17094896077E+03 -0.25905752872E+03  0.37099965370E+03  0.17300000000E+03 0.  1.
         -6    1    1    2    0  503 -0.10666486144E+03 -0.17094896077E+03 -0.31140685533E+03  0.40927273230E+03  0.17300000000E+03 0. -1.
<mgrwt>
<rscale>  2 0.26557473E+03</rscale>
<asrwt>0</asrwt>
<pdfrwt beam="1">  1       21 0.16139077E-01 0.26557473E+03</pdfrwt>
<pdfrwt beam="2">  1       21 0.10390283E+00 0.26557473E+03</pdfrwt>
<totfact> 0.24745324E+04</totfact>
</mgrwt>
</event>
<event>
 4    1  0.4441180E+000  0.3044202E+03  0.7546771E-02  0.1083052E+00
         21   -1    0    0  503  502  0.00000000000E+00  0.00000000000E+00  0.20743207131E+03  0.20743207131E+03  0.00000000000E+00 0. -1.
         21   -1    0    0  501  503 -0.00000000000E+00 -0.00000000000E+00 -0.49630818756E+03  0.49630818756E+03  0.00000000000E+00 0.  1.
          6    1    1    2  501    0  0.27629277469E+02  0.24895634346E+03 -0.25562035900E+03  0.39750900098E+03  0.17300000000E+03 0.  1.
         -6    1    1    2    0  502 -0.27629277469E+02 -0.24895634346E+03 -0.33255757251E+02  0.30623125790E+03  0.17300000000E+03 0. -1.
<mgrwt>
<rscale>  2 0.30442017E+03</rscale>
<asrwt>0</asrwt>
<pdfrwt beam="1">  1       21 0.31912627E-01 0.30442017E+03</pdfrwt>
<pdfrwt beam="2">  1       21 0.76355105E-01 0.30442017E+03</pdfrwt>
<totfact> 0.13592656E+04</totfact>
</mgrwt>
</event>
<event>
 4    1  0.4441180E+000  0.2089727E+03  0.7546771E-02  0.1142382E+00
         21   -1    0    0  503  502  0.00000000000E+00  0.00000000000E+00  0.27557657990E+03  0.27557657990E+03  0.00000000000E+00 0. -1.
         21   -1    0    0  501  503 -0.00000000000E+00 -0.00000000000E+00 -0.17664256240E+03  0.17664256240E+03  0.00000000000E+00 0.  1.
          6    1    1    2  501    0 -0.10352444883E+03  0.54984151786E+02 -0.23064209224E+02  0.21024159008E+03  0.17300000000E+03 0.  1.
         -6    1    1    2    0  502  0.10352444883E+03 -0.54984151786E+02  0.12199822672E+03  0.24197755222E+03  0.17300000000E+03 0. -1.
<mgrwt>
<rscale>  2 0.20897265E+03</rscale>
<asrwt>0</asrwt>
<pdfrwt beam="1">  1       21 0.42396397E-01 0.20897265E+03</pdfrwt>
<pdfrwt beam="2">  1       21 0.27175779E-01 0.20897265E+03</pdfrwt>
<totfact> 0.68589186E+04</totfact>
</mgrwt>
</event>
<event>
 4    1  0.4441180E+000  0.1858328E+03  0.7546771E-02  0.1162274E+00
         21   -1    0    0  503  502  0.00000000000E+00  0.00000000000E+00  0.34582571586E+03  0.34582571586E+03  0.00000000000E+00 0. -1.
         21   -1    0    0  501  503 -0.00000000000E+00 -0.00000000000E+00 -0.15621238330E+03  0.15621238330E+03  0.00000000000E+00 0. -1.
          6    1    1    2  501    0 -0.70496081439E+01 -0.67491784447E+02 -0.55961148298E+02  0.19407598528E+03  0.17300000000E+03 0. -1.
         -6    1    1    2    0  502  0.70496081439E+01  0.67491784447E+02  0.24557448085E+03  0.30796211389E+03  0.17300000000E+03 0. -1.
<mgrwt>
<rscale>  2 0.18583282E+03</rscale>
<asrwt>0</asrwt>
<pdfrwt beam="1">  1       21 0.53203956E-01 0.18583282E+03</pdfrwt>
<pdfrwt beam="2">  1       21 0.24032674E-01 0.18583282E+03</pdfrwt>
<totfact> 0.54801456E+04</totfact>
</mgrwt>
</event>
<event>
 4    1  0.4441180E+000  0.2335632E+03  0.7546771E-02  0.1124157E+00
         21   -1    0    0  503  502  0.00000000000E+00  0.00000000000E+00  0.30056424970E+03  0.30056424970E+03  0.00000000000E+00 0.  1.
         21   -1    0    0  501  503 -0.00000000000E+00 -0.00000000000E+00 -0.23209849608E+03  0.23209849608E+03  0.00000000000E+00 0.  1.
          6    1    1    2  501    0 -0.15010922620E+03 -0.45716619906E+02 -0.90122295227E+02  0.25034739308E+03  0.17300000000E+03 0.  1.
         -6    1    1    2    0  502  0.15010922620E+03  0.45716619906E+02  0.15858804885E+03  0.28231535269E+03  0.17300000000E+03 0.  1.
<mgrwt>
<rscale>  2 0.23356324E+03</rscale>
<asrwt>0</asrwt>
<pdfrwt beam="1">  1       21 0.46240654E-01 0.23356324E+03</pdfrwt>
<pdfrwt beam="2">  1       21 0.35707461E-01 0.23356324E+03</pdfrwt>
<totfact> 0.33190263E+04</totfact>
</mgrwt>
</event>
<event>
 4    1  0.4441180E+000  0.2087310E+03  0.7546771E-02  0.1142575E+00
         21   -1    0    0  501  502  0.00000000000E+00  0.00000000000E+00  0.56036976935E+02  0.56036976935E+02  0.00000000000E+00 0. -1.
         21   -1    0    0  502  503 -0.00000000000E+00 -0.00000000000E+00 -0.77779432209E+03  0.77779432209E+03  0.00000000000E+00 0.  1.
          6    1    1    2  501    0 -0.10354358621E+03  0.54021963855E+02 -0.35274333121E+03  0.40987376659E+03  0.17300000000E+03 0. -1.
         -6    1    1    2    0  503  0.10354358621E+03 -0.54021963855E+02 -0.36901401394E+03  0.42395753244E+03  0.17300000000E+03 0.  1.
<mgrwt>
<rscale>  2 0.20873104E+03</rscale>
<asrwt>0</asrwt>
<pdfrwt beam="1">  1       21 0.86210747E-02 0.20873104E+03</pdfrwt>
<pdfrwt beam="2">  1       21 0.11966065E+00 0.20873104E+03</pdfrwt>
<totfact> 0.55552795E+04</totfact>
</mgrwt>
</event>
<event>
 4    1  0.4441180E+000  0.2402878E+03  0.7546771E-02  0.1119601E+00
         21   -1    0    0  501  502  0.00000000000E+00  0.00000000000E+00  0.14507283210E+03  0.14507283210E+03  0.00000000000E+00 0. -1.
         21   -1    0    0  502  503 -0.00000000000E+00 -0.00000000000E+00 -0.44426339518E+03  0.44426339518E+03  0.00000000000E+00 0.  1.
          6    1    1    2  501    0 -0.38873331224E+02 -0.16216689972E+03 -0.54500688214E+02  0.24639107991E+03  0.17300000000E+03 0.  1.
         -6    1    1    2    0  503  0.38873331224E+02  0.16216689972E+03 -0.24468987486E+03  0.34294514737E+03  0.17300000000E+03 0.  1.
<mgrwt>
<rscale>  2 0.24028783E+03</rscale>
<asrwt>0</asrwt>
<pdfrwt beam="1">  1       21 0.22318897E-01 0.24028783E+03</pdfrwt>
<pdfrwt beam="2">  1       21 0.68348214E-01 0.24028783E+03</pdfrwt>
<totfact> 0.35830072E+04</totfact>
</mgrwt>
</event>
<event>
 4    1  0.4441180E+000  0.1852764E+03  0.7546771E-02  0.1162792E+00
         21   -1    0    0  503  502  0.00000000000E+00  0.00000000000E+00  0.69803037111E+03  0.69803037111E+03  0.00000000000E+00 0. -1.
         21   -1    0    0  501  503 -0.00000000000E+00 -0.00000000000E+00 -0.10984277275E+03  0.10984277275E+03  0.00000000000E+00 0. -1.
          6    1    1    2  501    0 -0.41486226574E+02  0.51742177296E+02 -0.60971929054E+01  0.18537673982E+03  0.17300000000E+03 0. -1.
         -6    1    1    2    0  502  0.41486226574E+02 -0.51742177296E+02  0.59428479126E+03  0.62249640403E+03  0.17300000000E+03 0. -1.
<mgrwt>
<rscale>  2 0.18527644E+03</rscale>
<asrwt>0</asrwt>
<pdfrwt beam="1">  1       21 0.10738929E+00 0.18527644E+03</pdfrwt>
<pdfrwt beam="2">  1       21 0.16898889E-01 0.18527644E+03</pdfrwt>
<totfact> 0.21928397E+04</totfact>
</mgrwt>
</event>
<event>
 4    1  0.4441180E+000  0.2556002E+03  0.7546771E-02  0.1109816E+00
         21   -1    0    0  501  502  0.00000000000E+00  0.00000000000E+00  0.69176662638E+03  0.69176662638E+03  0.00000000000E+00 0.  1.
         21   -1    0    0  502  503 -0.00000000000E+00 -0.00000000000E+00 -0.94663393467E+02  0.94663393467E+02  0.00000000000E+00 0. -1.
          6    1    1    2  501    0 -0.18797319813E+03 -0.82776420431E+01  0.31759136475E+03  0.40767108990E+03  0.17300000000E+03 0.  1.
         -6    1    1    2    0  503  0.18797319813E+03  0.82776420431E+01  0.27951186816E+03  0.37875892995E+03  0.17300000000E+03 0. -1.
<mgrwt>
<rscale>  2 0.25560016E+03</rscale>
<asrwt>0</asrwt>
<pdfrwt beam="1">  1       21 0.10642563E+00 0.25560016E+03</pdfrwt>
<pdfrwt beam="2">  1       21 0.14563599E-01 0.25560016E+03</pdfrwt>
<totfact> 0.28324381E+04</totfact>
</mgrwt>
</event>
<event>
 4    1  0.4441180E+000  0.2234729E+03  0.7546771E-02  0.1131320E+00
         21   -1    0    0  501  502  0.00000000000E+00  0.00000000000E+00  0.77187814566E+03  0.77187814566E+03  0.00000000000E+00 0. -1.
         21   -1    0    0  502  503 -0.00000000000E+00 -0.00000000000E+00 -0.14677667096E+03  0.14677667096E+03  0.00000000000E+00 0. -1.
          6    1    1    2  501    0 -0.60795817617E+02 -0.12773016119E+03  0.65603358058E+03  0.69305135767E+03  0.17300000000E+03 0. -1.
         -6    1    1    2    0  503  0.60795817617E+02  0.12773016119E+03 -0.30932105868E+02  0.22560345895E+03  0.17300000000E+03 0. -1.
<mgrwt>
<rscale>  2 0.22347287E+03</rscale>
<asrwt>0</asrwt>
<pdfrwt beam="1">  1       21 0.11875048E+00 0.22347287E+03</pdfrwt>
<pdfrwt beam="2">  1       21 0.22581027E-01 0.22347287E+03</pdfrwt>
<totfact> 0.97485907E+03</totfact>
</mgrwt>
</event>
<event>
 4    1  0.4441180E+000  0.1856512E+03  0.7546771E-02  0.1162443E+00
         21   -1    0    0  501  502  0.00000000000E+00  0.00000000000E+00  0.29519277619E+03  0.29519277619E+03  0.00000000000E+00 0. -1.
         21   -1    0    0  502  503 -0.00000000000E+00 -0.00000000000E+00 -0.13902654085E+03  0.13902654085E+03  0.00000000000E+00 0. -1.
          6    1    1    2  501    0 -0.63575122330E+02  0.22261510532E+02  0.16497272064E+03  0.24835935574E+03  0.17300000000E+03 0. -1.
         -6    1    1    2    0  503  0.63575122330E+02 -0.22261510532E+02 -0.88064852956E+01  0.18585996130E+03  0.17300000000E+03 0. -1.
<mgrwt>
<rscale>  2 0.18565121E+03</rscale>
<asrwt>0</asrwt>
<pdfrwt beam="1">  1       21 0.45414273E-01 0.18565121E+03</pdfrwt>
<pdfrwt beam="2">  1       21 0.21388699E-01 0.18565121E+03</pdfrwt>
<totfact> 0.94908325E+04</totfact>
</mgrwt>
</event>
<event>
 4    1  0.4441180E+000  0.1750172E+03  0.7546771E-02  0.1172714E+00
         21   -1    0    0  501  502  0.00000000000E+00  0.00000000000E+00  0.68365426996E+03  0.68365426996E+03  0.00000000000E+00 0.  1.
         21   -1    0    0  502  503 -0.00000000000E+00 -0.00000000000E+00 -0.75381816189E+02  0.75381816189E+02  0.00000000000E+00 0.  1.
          6    1    1    2  501    0 -0.13844616262E+02  0.22591009190E+02  0.62425276882E+02  0.18581695910E+03  0.17300000000E+03 0. -1.
         -6    1    1    2    0  503  0.13844616262E+02 -0.22591009190E+02  0.54584717689E+03  0.57321912705E+03  0.17300000000E+03 0. -1.
<mgrwt>
<rscale>  2 0.17501722E+03</rscale>
<asrwt>0</asrwt>
<pdfrwt beam="1">  1       21 0.10517758E+00 0.17501722E+03</pdfrwt>
<pdfrwt beam="2">  1       21 0.11597203E-01 0.17501722E+03</pdfrwt>
<totfact> 0.45805383E+04</totfact>
</mgrwt>
</event>
<event>
 4    1  0.4441180E+000  0.2000061E+03  0.7546771E-02  0.1149734E+00
         21   -1    0    0  503  502  0.00000000000E+00  0.00000000000E+00  0.10414936251E+04  0.10414936251E+04  0.00000000000E+00 0.  1.
         21   -1    0    0  501  503 -0.00000000000E+00 -0.00000000000E+00 -0.78688727612E+02  0.78688727612E+02  0.00000000000E+00 0. -1.
          6    1    1    2  501    0  0.65121153967E+02 -0.76371863390E+02  0.80676655379E+02  0.21566443595E+03  0.17300000000E+03 0. -1.
         -6    1    1    2    0  502 -0.65121153967E+02  0.76371863390E+02  0.88212824212E+03  0.90451791677E+03  0.17300000000E+03 0.  1.
<mgrwt>
<rscale>  2 0.20000607E+03</rscale>
<asrwt>0</asrwt>
<pdfrwt beam="1">  1       21 0.16022978E+00 0.20000607E+03</pdfrwt>
<pdfrwt beam="2">  1       21 0.12105959E-01 0.20000607E+03</pdfrwt>
<totfact> 0.14405765E+04</totfact>
</mgrwt>
</event>
<event>
 4    1  0.4441180E+000  0.2921022E+03  0.7546771E-02  0.1089257E+00
         21   -1    0    0  503  502  0.00000000000E+00  0.00000000000E+00  0.80097000403E+03  0.80097000403E+03  0.00000000000E+00 0. -1.
         21   -1    0    0  501  503 -0.00000000000E+00 -0.00000000000E+00 -0.11354805824E+03  0.11354805824E+03  0.00000000000E+00 0.  1.
          6    1    1    2  501    0  0.20516663684E+03  0.11533152914E+03  0.22999515737E+03  0.37178149886E+03  0.17300000000E+03 0.  1.
         -6    1    1    2    0  502 -0.20516663684E+03 -0.11533152914E+03  0.45742678843E+03  0.54273656341E+03  0.17300000000E+03 0.  1.
<mgrwt>
<rscale>  2 0.29210223E+03</rscale>
<asrwt>0</asrwt>
<pdfrwt beam="1">  1       21 0.12322615E+00 0.29210223E+03</pdfrwt>
<pdfrwt beam="2">  1       21 0.17468933E-01 0.29210223E+03</pdfrwt>
<totfact> 0.13861036E+04</totfact>
</mgrwt>
</event>
<event>
 4    1  0.4441180E+000  0.1925047E+03  0.7546771E-02  0.1156221E+00
         21   -1    0    0  503  502  0.00000000000E+00  0.00000000000E+00  0.14775167507E+03  0.14775167507E+03  0.00000000000E+00 0. -1.
         21   -1    0    0  501  503 -0.00000000000E+00 -0.00000000000E+00 -0.25812189511E+03  0.25812189511E+03  0.00000000000E+00 0. -1.
          6    1    1    2  501    0 -0.78832604807E+02  0.30240148369E+02 -0.89333730001E+02  0.21222290515E+03  0.17300000000E+03 0. -1.
         -6    1    1    2    0  502  0.78832604807E+02 -0.30240148369E+02 -0.21036490046E+02  0.19365066503E+03  0.17300000000E+03 0. -1.
<mgrwt>
<rscale>  2 0.19250467E+03</rscale>
<asrwt>0</asrwt>
<pdfrwt beam="1">  1       21 0.22731027E-01 0.19250467E+03</pdfrwt>
<pdfrwt beam="2">  1       21 0.39711061E-01 0.19250467E+03</pdfrwt>
<totfact> 0.11093953E+05</totfact>
</mgrwt>
</event>
<event>
 4    1  0.4441180E+000  0.2085719E+03  0.7546771E-02  0.1142702E+00
         21   -1    0    0  503  502  0.00000000000E+00  0.00000000000E+00  0.17957570945E+03  0.17957570945E+03  0.00000000000E+00 0. -1.
         21   -1    0    0  501  503 -0.00000000000E+00 -0.00000000000E+00 -0.35863125192E+03  0.35863125192E+03  0.00000000000E+00 0.  1.
          6    1    1    2  501    0 -0.55787967580E+02 -0.10227872100E+03 -0.24282579961E+03  0.32010405035E+03  0.17300000000E+03 0.  1.
         -6    1    1    2    0  502  0.55787967580E+02  0.10227872100E+03  0.63770257138E+02  0.21810291101E+03  0.17300000000E+03 0. -1.
<mgrwt>
<rscale>  2 0.20857189E+03</rscale>
<asrwt>0</asrwt>
<pdfrwt beam="1">  1       21 0.27627033E-01 0.20857189E+03</pdfrwt>
<pdfrwt beam="2">  1       21 0.55174038E-01 0.20857189E+03</pdfrwt>
<totfact> 0.38422431E+04</totfact>
</mgrwt>
</event>
<event>
 4    1  0.4441180E+000  0.2215181E+03  0.7546771E-02  0.1132756E+00
         21   -1    0    0  501  502  0.00000000000E+00  0.00000000000E+00  0.25564581614E+03  0.25564581614E+03  0.00000000000E+00 0. -1.
         21   -1    0    0  502  503 -0.00000000000E+00 -0.00000000000E+00 -0.56641112608E+03  0.56641112608E+03  0.00000000000E+00 0.  1.
          6    1    1    2  501    0 -0.48851436745E+02 -0.12944027818E+03  0.17882129482E+03  0.28468808189E+03  0.17300000000E+03 0. -1.
         -6    1    1    2    0  503  0.48851436745E+02  0.12944027818E+03 -0.48958660476E+03  0.53736886033E+03  0.17300000000E+03 0.  1.
<mgrwt>
<rscale>  2 0.22151805E+03</rscale>
<asrwt>0</asrwt>
<pdfrwt beam="1">  1       21 0.39330126E-01 0.22151805E+03</pdfrwt>
<pdfrwt beam="2">  1       21 0.87140172E-01 0.22151805E+03</pdfrwt>
<totfact> 0.69096718E+03</totfact>
</mgrwt>
</event>
<event>
 4    1  0.4441180E+000  0.2555479E+03  0.7546771E-02  0.1109848E+00
         21   -1    0    0  503  502  0.00000000000E+00  0.00000000000E+00  0.19295483288E+03  0.19295483288E+03  0.00000000000E+00 0.  1.
         21   -1    0    0  501  503 -0.00000000000E+00 -0.00000000000E+00 -0.40569342726E+03  0.40569342726E+03  0.00000000000E+00 0. -1.
          6    1    1    2  501    0  0.16483376917E+03  0.90584447052E+02 -0.22823510822E+03  0.34263096493E+03  0.17300000000E+03 0. -1.
         -6    1    1    2    0  502 -0.16483376917E+03 -0.90584447052E+02  0.15496513840E+02  0.25601729521E+03  0.17300000000E+03 0.  1.
<mgrwt>
<rscale>  2 0.25554787E+03</rscale>
<asrwt>0</asrwt>
<pdfrwt beam="1">  1       21 0.29685359E-01 0.25554787E+03</pdfrwt>
<pdfrwt beam="2">  1       21 0.62414372E-01 0.25554787E+03</pdfrwt>
<totfact> 0.25061905E+04</totfact>
</mgrwt>
</event>
<event>
 4    1  0.4441180E+000  0.1802545E+03  0.7546771E-02  0.1167557E+00
         21   -1    0    0  501  502  0.00000000000E+00  0.00000000000E+00  0.11566332648E+04  0.11566332648E+04  0.00000000000E+00 0.  1.
         21   -1    0    0  502  503 -0.00000000000E+00 -0.00000000000E+00 -0.28126275063E+02  0.28126275063E+02  0.00000000000E+00 0.  1.
          6    1    1    2  501    0  0.50203846051E+02 -0.65019754141E+01  0.58504706923E+03  0.61218606245E+03  0.17300000000E+03 0. -1.
         -6    1    1    2    0  503 -0.50203846051E+02  0.65019754141E+01  0.54345992054E+03  0.57257347745E+03  0.17300000000E+03 0. -1.
<mgrwt>
<rscale>  2 0.18025455E+03</rscale>
<asrwt>0</asrwt>
<pdfrwt beam="1">  1       21 0.17794354E+00 0.18025455E+03</pdfrwt>
<pdfrwt beam="2">  1       21 0.43271201E-02 0.18025455E+03</pdfrwt>
<totfact> 0.65001847E+04</totfact>
</mgrwt>
</event>
<event>
 4    1  0.4441180E+000  0.2238055E+03  0.7546771E-02  0.1131077E+00
         21   -1    0    0  503  502  0.00000000000E+00  0.00000000000E+00  0.12313998842E+04  0.12313998842E+04  0.00000000000E+00 0.  1.
         21   -1    0    0  501  503 -0.00000000000E+00 -0.00000000000E+00 -0.93655025685E+02  0.93655025685E+02  0.00000000000E+00 0.  1.
          6    1    1    2  501    0 -0.14120784437E+03 -0.14839981851E+02  0.70574831856E+02  0.23466931471E+03  0.17300000000E+03 0.  1.
         -6    1    1    2    0  502  0.14120784437E+03  0.14839981851E+02  0.10671700267E+04  0.10903855952E+04  0.17300000000E+03 0.  1.
<mgrwt>
<rscale>  2 0.22380545E+03</rscale>
<asrwt>0</asrwt>
<pdfrwt beam="1">  1       21 0.18944612E+00 0.22380545E+03</pdfrwt>
<pdfrwt beam="2">  1       21 0.14408466E-01 0.22380545E+03</pdfrwt>
<totfact> 0.64681885E+03</totfact>
</mgrwt>
</event>
<event>
 4    1  0.4441180E+000  0.1885293E+03  0.7546771E-02  0.1159795E+00
         21   -1    0    0  501  502  0.00000000000E+00  0.00000000000E+00  0.30723501532E+02  0.30723501532E+02  0.00000000000E+00 0.  1.
         21   -1    0    0  502  503 -0.00000000000E+00 -0.00000000000E+00 -0.15563336248E+04  0.15563336248E+04  0.00000000000E+00 0. -1.
          6    1    1    2  501    0 -0.71385322339E+02  0.22768711946E+02 -0.36078601850E+03  0.40707472242E+03  0.17300000000E+03 0.  1.
         -6    1    1    2    0  503  0.71385322339E+02 -0.22768711946E+02 -0.11648241047E+04  0.11799824039E+04  0.17300000000E+03 0. -1.
<mgrwt>
<rscale>  2 0.18852925E+03</rscale>
<asrwt>0</asrwt>
<pdfrwt beam="1">  1       21 0.47266924E-02 0.18852925E+03</pdfrwt>
<pdfrwt beam="2">  1       21 0.23943595E+00 0.18852925E+03</pdfrwt>
<totfact> 0.22793336E+04</totfact>
</mgrwt>
</event>
<event>
 4    1  0.4441180E+000  0.1751632E+03  0.7546771E-02  0.1172568E+00
         21   -1    0    0  503  502  0.00000000000E+00  0.00000000000E+00  0.34823662840E+03  0.34823662840E+03  0.00000000000E+00 0. -1.
         21   -1    0    0  501  503 -0.00000000000E+00 -0.00000000000E+00 -0.13197480628E+03  0.13197480628E+03  0.00000000000E+00 0. -1.
          6    1    1    2  501    0  0.19903310942E+02 -0.18894422842E+02 -0.30298745651E+02  0.17776432429E+03  0.17300000000E+03 0. -1.
         -6    1    1    2    0  502 -0.19903310942E+02  0.18894422842E+02  0.24656056778E+03  0.30244711039E+03  0.17300000000E+03 0. -1.
<mgrwt>
<rscale>  2 0.17516318E+03</rscale>
<asrwt>0</asrwt>
<pdfrwt beam="1">  1       21 0.53574865E-01 0.17516318E+03</pdfrwt>
<pdfrwt beam="2">  1       21 0.20303817E-01 0.17516318E+03</pdfrwt>
<totfact> 0.74538616E+04</totfact>
</mgrwt>
</event>
<event>
 4    1  0.4441180E+000  0.2461876E+03  0.7546771E-02  0.1115738E+00
         21   -1    0    0  503  502  0.00000000000E+00  0.00000000000E+00  0.51092783278E+03  0.51092783278E+03  0.00000000000E+00 0.  1.
         21   -1    0    0  501  503 -0.00000000000E+00 -0.00000000000E+00 -0.11876508406E+03  0.11876508406E+03  0.00000000000E+00 0.  1.
          6    1    1    2  501    0  0.16449821527E+03 -0.60163591396E+02  0.18523108755E+03  0.30808907211E+03  0.17300000000E+03 0.  1.
         -6    1    1    2    0  502 -0.16449821527E+03  0.60163591396E+02  0.20693166117E+03  0.32160384474E+03  0.17300000000E+03 0.  1.
<mgrwt>
<rscale>  2 0.24618757E+03</rscale>
<asrwt>0</asrwt>
<pdfrwt beam="1">  1       21 0.78604281E-01 0.24618757E+03</pdfrwt>
<pdfrwt beam="2">  1       21 0.18271552E-01 0.24618757E+03</pdfrwt>
<totfact> 0.38074338E+04</totfact>
</mgrwt>
</event>
<event>
 4    1  0.4441180E+000  0.2380098E+03  0.7546771E-02  0.1121126E+00
         21   -1    0    0  503  502  0.00000000000E+00  0.00000000000E+00  0.15825668124E+03  0.15825668124E+03  0.00000000000E+00 0.  1.
         21   -1    0    0  501  503 -0.00000000000E+00 -0.00000000000E+00 -0.35833019417E+03  0.35833019417E+03  0.00000000000E+00 0.  1.
          6    1    1    2  501    0 -0.50356227520E+02  0.15551178085E+03 -0.91671301399E+02  0.25505350641E+03  0.17300000000E+03 0.  1.
         -6    1    1    2    0  502  0.50356227520E+02 -0.15551178085E+03 -0.10840221153E+03  0.26153336900E+03  0.17300000000E+03 0.  1.
<mgrwt>
<rscale>  2 0.23800980E+03</rscale>
<asrwt>0</asrwt>
<pdfrwt beam="1">  1       21 0.24347182E-01 0.23800980E+03</pdfrwt>
<pdfrwt beam="2">  1       21 0.55127722E-01 0.23800980E+03</pdfrwt>
<totfact> 0.48422870E+04</totfact>
</mgrwt>
</event>
<event>
 4    1  0.4441180E+000  0.1816237E+03  0.7546771E-02  0.1166241E+00
         21   -1    0    0  501  502  0.00000000000E+00  0.00000000000E+00  0.12662271244E+04  0.12662271244E+04  0.00000000000E+00 0.  1.
         21   -1    0    0  502  503 -0.00000000000E+00 -0.00000000000E+00 -0.38837056083E+02  0.38837056083E+02  0.00000000000E+00 0.  1.
          6    1    1    2  501    0 -0.27291810741E+02  0.48097083243E+02  0.98809670421E+03  0.10046503219E+04  0.17300000000E+03 0.  1.
         -6    1    1    2    0  503  0.27291810741E+02 -0.48097083243E+02  0.23929336415E+03  0.30041385866E+03  0.17300000000E+03 0.  1.
<mgrwt>
<rscale>  2 0.18162371E+03</rscale>
<asrwt>0</asrwt>
<pdfrwt beam="1">  1       21 0.19480414E+00 0.18162371E+03</pdfrwt>
<pdfrwt beam="2">  1       21 0.59749327E-02 0.18162371E+03</pdfrwt>
<totfact> 0.29037046E+04</totfact>
</mgrwt>
</event>
<event>
 4    1  0.4441180E+000  0.2907930E+03  0.7546771E-02  0.1089936E+00
         21   -1    0    0  501  502  0.00000000000E+00  0.00000000000E+00  0.12998186861E+04  0.12998186861E+04  0.00000000000E+00 0. -1.
         21   -1    0    0  502  503 -0.00000000000E+00 -0.00000000000E+00 -0.93652000954E+02  0.93652000954E+02  0.00000000000E+00 0.  1.
          6    1    1    2  501    0  0.71117081060E+02  0.22265204016E+03  0.98808668467E+03  0.10299882847E+04  0.17300000000E+03 0. -1.
         -6    1    1    2    0  503 -0.71117081060E+02 -0.22265204016E+03  0.21808000046E+03  0.36348240233E+03  0.17300000000E+03 0. -1.
<mgrwt>
<rscale>  2 0.29079300E+03</rscale>
<asrwt>0</asrwt>
<pdfrwt beam="1">  1       21 0.19997209E+00 0.29079300E+03</pdfrwt>
<pdfrwt beam="2">  1       21 0.14408001E-01 0.29079300E+03</pdfrwt>
<totfact> 0.52640009E+03</totfact>
</mgrwt>
</event>
<event>
 4    1  0.4441180E+000  0.1859221E+03  0.7546771E-02  0.1162192E+00
         21   -1    0    0  501  502  0.00000000000E+00  0.00000000000E+00  0.23039862424E+02  0.23039862424E+02  0.00000000000E+00 0.  1.
         21   -1    0    0  502  503 -0.00000000000E+00 -0.00000000000E+00 -0.19672852372E+04  0.19672852372E+04  0.00000000000E+00 0.  1.
          6    1    1    2  501    0  0.54830119380E+02  0.40394001094E+02 -0.14569707249E+04  0.14687854542E+04  0.17300000000E+03 0.  1.
         -6    1    1    2    0  503 -0.54830119380E+02 -0.40394001094E+02 -0.48727464988E+03  0.52153964541E+03  0.17300000000E+03 0.  1.
<mgrwt>
<rscale>  2 0.18592207E+03</rscale>
<asrwt>0</asrwt>
<pdfrwt beam="1">  1       21 0.35445938E-02 0.18592207E+03</pdfrwt>
<pdfrwt beam="2">  1       21 0.30265930E+00 0.18592207E+03</pdfrwt>
<totfact> 0.15916799E+04</totfact>
</mgrwt>
</event>
<event>
 4    1  0.4441180E+000  0.2121303E+03  0.7546771E-02  0.1139890E+00
         21   -1    0    0  501  502  0.00000000000E+00  0.00000000000E+00  0.25384139481E+03  0.25384139481E+03  0.00000000000E+00 0.  1.
         21   -1    0    0  502  503 -0.00000000000E+00 -0.00000000000E+00 -0.17885271025E+03  0.17885271025E+03  0.00000000000E+00 0. -1.
          6    1    1    2  501    0  0.12260939861E+03  0.60983118718E+01  0.57826175132E+02  0.21987069056E+03  0.17300000000E+03 0.  1.
         -6    1    1    2    0  503 -0.12260939861E+03 -0.60983118718E+01  0.17162509427E+02  0.21282341451E+03  0.17300000000E+03 0. -1.
<mgrwt>
<rscale>  2 0.21213028E+03</rscale>
<asrwt>0</asrwt>
<pdfrwt beam="1">  1       21 0.39052522E-01 0.21213028E+03</pdfrwt>
<pdfrwt beam="2">  1       21 0.27515802E-01 0.21213028E+03</pdfrwt>
<totfact> 0.79004814E+04</totfact>
</mgrwt>
</event>
<event>
 4    1  0.4441180E+000  0.1882394E+03  0.7546771E-02  0.1160059E+00
         21   -1    0    0  501  502  0.00000000000E+00  0.00000000000E+00  0.82030399862E+02  0.82030399862E+02  0.00000000000E+00 0.  1.
         21   -1    0    0  502  503 -0.00000000000E+00 -0.00000000000E+00 -0.94529323993E+03  0.94529323993E+03  0.00000000000E+00 0. -1.
          6    1    1    2  501    0  0.18950883743E+02  0.71735121982E+02 -0.53108127263E+02  0.19558767063E+03  0.17300000000E+03 0.  1.
         -6    1    1    2    0  503 -0.18950883743E+02 -0.71735121982E+02 -0.81015471281E+03  0.83173596917E+03  0.17300000000E+03 0. -1.
<mgrwt>
<rscale>  2 0.18823938E+03</rscale>
<asrwt>0</asrwt>
<pdfrwt beam="1">  1       21 0.12620061E-01 0.18823938E+03</pdfrwt>
<pdfrwt beam="2">  1       21 0.14542974E+00 0.18823938E+03</pdfrwt>
<totfact> 0.17432019E+04</totfact>
</mgrwt>
</event>
<event>
 4    1  0.4441180E+000  0.2421983E+03  0.7546771E-02  0.1118337E+00
         21   -1    0    0  501  502  0.00000000000E+00  0.00000000000E+00  0.97009850692E+03  0.97009850692E+03  0.00000000000E+00 0. -1.
         21   -1    0    0  502  503 -0.00000000000E+00 -0.00000000000E+00 -0.85130376638E+02  0.85130376638E+02  0.00000000000E+00 0.  1.
          6    1    1    2  501    0  0.14750879317E+03 -0.83499646549E+02  0.72646604608E+03  0.76577604503E+03  0.17300000000E+03 0. -1.
         -6    1    1    2    0  503 -0.14750879317E+03  0.83499646549E+02  0.15850208420E+03  0.28945283853E+03  0.17300000000E+03 0.  1.
<mgrwt>
<rscale>  2 0.24219834E+03</rscale>
<asrwt>0</asrwt>
<pdfrwt beam="1">  1       21 0.14924592E+00 0.24219834E+03</pdfrwt>
<pdfrwt beam="2">  1       21 0.13096982E-01 0.24219834E+03</pdfrwt>
<totfact> 0.14707330E+04</totfact>
</mgrwt>
</event>
<event>
 4    1  0.4441180E+000  0.2624779E+03  0.7546771E-02  0.1105664E+00
         21   -1    0    0  503  502  0.00000000000E+00  0.00000000000E+00  0.36106133116E+02  0.36106133116E+02  0.00000000000E+00 0.  1.
         21   -1    0    0  501  503 -0.00000000000E+00 -0.00000000000E+00 -0.19404650627E+04  0.19404650627E+04  0.00000000000E+00 0. -1.
          6    1    1    2  501    0 -0.12123070687E+03 -0.15578426979E+03 -0.10797859990E+04  0.11112301412E+04  0.17300000000E+03 0.  1.
         -6    1    1    2    0  502  0.12123070687E+03  0.15578426979E+03 -0.82457293054E+03  0.86534105461E+03  0.17300000000E+03 0. -1.
<mgrwt>
<rscale>  2 0.26247785E+03</rscale>
<asrwt>0</asrwt>
<pdfrwt beam="1">  1       21 0.55547880E-02 0.26247785E+03</pdfrwt>
<pdfrwt beam="2">  1       21 0.29853318E+00 0.26247785E+03</pdfrwt>
<totfact> 0.73242710E+03</totfact>
</mgrwt>
</event>
<event>
 4    1  0.4441180E+000  0.2399195E+03  0.7546771E-02  0.1119846E+00
         21   -1    0    0  501  502  0.00000000000E+00  0.00000000000E+00  0.91059890194E+03  0.91059890194E+03  0.00000000000E+00 0. -1.
         21   -1    0    0  502  503 -0.00000000000E+00 -0.00000000000E+00 -0.24390067226E+03  0.24390067226E+03  0.00000000000E+00 0. -1.
          6    1    1    2  501    0  0.16372546748E+03 -0.28745804172E+02  0.83019533581E+03  0.86416760270E+03  0.17300000000E+03 0. -1.
         -6    1    1    2    0  503 -0.16372546748E+03  0.28745804172E+02 -0.16349710613E+03  0.29033197149E+03  0.17300000000E+03 0. -1.
<mgrwt>
<rscale>  2 0.23991947E+03</rscale>
<asrwt>0</asrwt>
<pdfrwt beam="1">  1       21 0.14009214E+00 0.23991947E+03</pdfrwt>
<pdfrwt beam="2">  1       21 0.37523181E-01 0.23991947E+03</pdfrwt>
<totfact> 0.23507530E+03</totfact>
</mgrwt>
</event>
<event>
 4    1  0.4441180E+000  0.1951031E+03  0.7546771E-02  0.1153938E+00
         21   -1    0    0  503  502  0.00000000000E+00  0.00000000000E+00  0.80388840060E+02  0.80388840060E+02  0.00000000000E+00 0.  1.
         21   -1    0    0  501  503 -0.00000000000E+00 -0.00000000000E+00 -0.74625713515E+03  0.74625713515E+03  0.00000000000E+00 0.  1.
          6    1    1    2  501    0 -0.78954117390E+02 -0.43617211528E+02 -0.58280896932E+03  0.61459865645E+03  0.17300000000E+03 0.  1.
         -6    1    1    2    0  502  0.78954117390E+02  0.43617211528E+02 -0.83059325770E+02  0.21204731876E+03  0.17300000000E+03 0.  1.
<mgrwt>
<rscale>  2 0.19510309E+03</rscale>
<asrwt>0</asrwt>
<pdfrwt beam="1">  1       21 0.12367514E-01 0.19510309E+03</pdfrwt>
<pdfrwt beam="2">  1       21 0.11480879E+00 0.19510309E+03</pdfrwt>
<totfact> 0.32680852E+04</totfact>
</mgrwt>
</event>
<event>
 4    1  0.4441180E+000  0.2811188E+03  0.7546771E-02  0.1095079E+00
         21   -1    0    0  501  502  0.00000000000E+00  0.00000000000E+00  0.35954695673E+03  0.35954695673E+03  0.00000000000E+00 0. -1.
         21   -1    0    0  502  503 -0.00000000000E+00 -0.00000000000E+00 -0.23443122212E+03  0.23443122212E+03  0.00000000000E+00 0. -1.
          6    1    1    2  501    0  0.38506630690E+02  0.21821095802E+03  0.13675710035E+03  0.31261843724E+03  0.17300000000E+03 0. -1.
         -6    1    1    2    0  503 -0.38506630690E+02 -0.21821095802E+03 -0.11641365736E+02  0.28135974161E+03  0.17300000000E+03 0. -1.
<mgrwt>
<rscale>  2 0.28111881E+03</rscale>
<asrwt>0</asrwt>
<pdfrwt beam="1">  1       21 0.55314917E-01 0.28111881E+03</pdfrwt>
<pdfrwt beam="2">  1       21 0.36066342E-01 0.28111881E+03</pdfrwt>
<totfact> 0.21852251E+04</totfact>
</mgrwt>
</event>
<event>
 4    1  0.4441180E+000  0.1738097E+03  0.7546771E-02  0.1173932E+00
         21   -1    0    0  503  502  0.00000000000E+00  0.00000000000E+00  0.58872356574E+03  0.58872356574E+03  0.00000000000E+00 0.  1.
         21   -1    0    0  501  503 -0.00000000000E+00 -0.00000000000E+00 -0.53589893599E+02  0.53589893599E+02  0.00000000000E+00 0.  1.
          6    1    1    2  501    0 -0.36720728038E+01  0.16350414408E+02  0.20138451784E+03  0.26601793961E+03  0.17300000000E+03 0.  1.
         -6    1    1    2    0  502  0.36720728038E+01 -0.16350414408E+02  0.33374915430E+03  0.37629551972E+03  0.17300000000E+03 0.  1.
<mgrwt>
<rscale>  2 0.17380972E+03</rscale>
<asrwt>0</asrwt>
<pdfrwt beam="1">  1       21 0.90572852E-01 0.17380972E+03</pdfrwt>
<pdfrwt beam="2">  1       21 0.82445994E-02 0.17380972E+03</pdfrwt>
<totfact> 0.11874142E+05</totfact>
</mgrwt>
</event>
<event>
 4    1  0.4441180E+000  0.2296842E+03  0.7546771E-02  0.1126862E+00
         21   -1    0    0  501  502  0.00000000000E+00  0.00000000000E+00  0.46772333836E+03  0.46772333836E+03  0.00000000000E+00 0.  1.
         21   -1    0    0  502  503 -0.00000000000E+00 -0.00000000000E+00 -0.19478995094E+03  0.19478995094E+03  0.00000000000E+00 0. -1.
          6    1    1    2  501    0  0.79169354448E+02  0.12867799579E+03  0.35139144544E+03  0.41979847691E+03  0.17300000000E+03 0.  1.
         -6    1    1    2    0  503 -0.79169354448E+02 -0.12867799579E+03 -0.78458058028E+02  0.24271481239E+03  0.17300000000E+03 0. -1.
<mgrwt>
<rscale>  2 0.22968416E+03</rscale>
<asrwt>0</asrwt>
<pdfrwt beam="1">  1       21 0.71957437E-01 0.22968416E+03</pdfrwt>
<pdfrwt beam="2">  1       21 0.29967685E-01 0.22968416E+03</pdfrwt>
<totfact> 0.18216658E+04</totfact>
</mgrwt>
</event>
<event>
 4    1  0.4441180E+000  0.1828856E+03  0.7546771E-02  0.1165039E+00
         21   -1    0    0  503  502  0.00000000000E+00  0.00000000000E+00  0.28867730134E+03  0.28867730134E+03  0.00000000000E+00 0. -1.
         21   -1    0    0  501  503 -0.00000000000E+00 -0.00000000000E+00 -0.23310956247E+03  0.23310956247E+03  0.00000000000E+00 0. -1.
          6    1    1    2  501    0  0.54901563977E+02 -0.22449063570E+02 -0.15724196212E+03  0.24118908938E+03  0.17300000000E+03 0. -1.
         -6    1    1    2    0  502 -0.54901563977E+02  0.22449063570E+02  0.21280970099E+03  0.28059777443E+03  0.17300000000E+03 0. -1.
<mgrwt>
<rscale>  2 0.18288560E+03</rscale>
<asrwt>0</asrwt>
<pdfrwt beam="1">  1       21 0.44411893E-01 0.18288560E+03</pdfrwt>
<pdfrwt beam="2">  1       21 0.35863010E-01 0.18288560E+03</pdfrwt>
<totfact> 0.36681890E+04</totfact>
</mgrwt>
</event>
<event>
 4    1  0.4441180E+000  0.1981354E+03  0.7546771E-02  0.1151322E+00
         21   -1    0    0  501  502  0.00000000000E+00  0.00000000000E+00  0.15497349552E+03  0.15497349552E+03  0.00000000000E+00 0. -1.
         21   -1    0    0  502  503 -0.00000000000E+00 -0.00000000000E+00 -0.34677619354E+03  0.34677619354E+03  0.00000000000E+00 0. -1.
          6    1    1    2  501    0 -0.17462114902E+02 -0.94993206154E+02  0.34337421992E+02  0.20108876951E+03  0.17300000000E+03 0. -1.
         -6    1    1    2    0  503  0.17462114902E+02  0.94993206154E+02 -0.22614012000E+03  0.30066091955E+03  0.17300000000E+03 0. -1.
<mgrwt>
<rscale>  2 0.19813539E+03</rscale>
<asrwt>0</asrwt>
<pdfrwt beam="1">  1       21 0.23842076E-01 0.19813539E+03</pdfrwt>
<pdfrwt beam="2">  1       21 0.53350184E-01 0.19813539E+03</pdfrwt>
<totfact> 0.55000570E+04</totfact>
</mgrwt>
</event>
<event>
 4    1  0.4441180E+000  0.2777014E+03  0.7546771E-02  0.1096951E+00
         21   -1    0    0  501  502  0.00000000000E+00  0.00000000000E+00  0.89931649592E+02  0.89931649592E+02  0.00000000000E+00 0. -1.
         21   -1    0    0  502  503 -0.00000000000E+00 -0.00000000000E+00 -0.86016734650E+03  0.86016734650E+03  0.00000000000E+00 0.  1.
          6    1    1    2  501    0  0.18843818225E+03  0.10807452312E+03 -0.41147981321E+03  0.49642087764E+03  0.17300000000E+03 0. -1.
         -6    1    1    2    0  503 -0.18843818225E+03 -0.10807452312E+03 -0.35875588370E+03  0.45367811845E+03  0.17300000000E+03 0. -1.
<mgrwt>
<rscale>  2 0.27770137E+03</rscale>
<asrwt>0</asrwt>
<pdfrwt beam="1">  1       21 0.13835639E-01 0.27770137E+03</pdfrwt>
<pdfrwt beam="2">  1       21 0.13233343E+00 0.27770137E+03</pdfrwt>
<totfact> 0.17883713E+04</totfact>
</mgrwt>
</event>
<event>
 4    1  0.4441180E+000  0.1841171E+03  0.7546771E-02  0.1163877E+00
         21   -1    0    0  503  502  0.00000000000E+00  0.00000000000E+00  0.96588663483E+02  0.96588663483E+02  0.00000000000E+00 0. -1.
         21   -1    0    0  501  503 -0.00000000000E+00 -0.00000000000E+00 -0.56719438216E+03  0.56719438216E+03  0.00000000000E+00 0. -1.
          6    1    1    2  501    0  0.60897735975E+02 -0.16172799979E+02 -0.44022509112E+03  0.47717630343E+03  0.17300000000E+03 0. -1.
         -6    1    1    2    0  502 -0.60897735975E+02  0.16172799979E+02 -0.30380627553E+02  0.18660674221E+03  0.17300000000E+03 0. -1.
<mgrwt>
<rscale>  2 0.18411707E+03</rscale>
<asrwt>0</asrwt>
<pdfrwt beam="1">  1       21 0.14859794E-01 0.18411707E+03</pdfrwt>
<pdfrwt beam="2">  1       21 0.87260675E-01 0.18411707E+03</pdfrwt>
<totfact> 0.45214193E+04</totfact>
</mgrwt>
</event>
<event>
 4    1  0.4441180E+000  0.1984615E+03  0.7546771E-02  0.1151044E+00
         21   -1    0    0  503  502  0.00000000000E+00  0.00000000000E+00  0.28489956699E+03  0.28489956699E+03  0.00000000000E+00 0.  1.
         21   -1    0    0  501  503 -0.00000000000E+00 -0.00000000000E+00 -0.43556677340E+03  0.43556677340E+03  0.00000000000E+00 0.  1.
          6    1    1    2  501    0  0.30200094880E+02 -0.92444125711E+02 -0.37295699887E+03  0.42247353186E+03  0.17300000000E+03 0.  1.
         -6    1    1    2    0  502 -0.30200094880E+02  0.92444125711E+02  0.22228979246E+03  0.29799280854E+03  0.17300000000E+03 0.  1.
<mgrwt>
<rscale>  2 0.19846149E+03</rscale>
<asrwt>0</asrwt>
<pdfrwt beam="1">  1       21 0.43830703E-01 0.19846149E+03</pdfrwt>
<pdfrwt beam="2">  1       21 0.67010273E-01 0.19846149E+03</pdfrwt>
<totfact> 0.10158834E+04</totfact>
</mgrwt>
</event>
<event>
 4    1  0.4441180E+000  0.2429496E+03  0.7546771E-02  0.1117843E+00
         21   -1    0    0  501  502  0.00000000000E+00  0.00000000000E+00  0.91098006451E+02  0.91098006451E+02  0.00000000000E+00 0. -1.
         21   -1    0    0  502  503 -0.00000000000E+00 -0.00000000000E+00 -0.18139857581E+04  0.18139857581E+04  0.00000000000E+00 0.  1.
          6    1    1    2  501    0 -0.12531953743E+03 -0.11571735247E+03 -0.97734522886E+02  0.26187120706E+03  0.17300000000E+03 0. -1.
         -6    1    1    2    0  503  0.12531953743E+03  0.11571735247E+03 -0.16251532287E+04  0.16432125575E+04  0.17300000000E+03 0.  1.
<mgrwt>
<rscale>  2 0.24294957E+03</rscale>
<asrwt>0</asrwt>
<pdfrwt beam="1">  1       21 0.14015080E-01 0.24294957E+03</pdfrwt>
<pdfrwt beam="2">  1       21 0.27907469E+00 0.24294957E+03</pdfrwt>
<totfact> 0.18917365E+03</totfact>
</mgrwt>
</event>
<event>
 4    1  0.4441180E+000  0.2111187E+03  0.7546771E-02  0.1140683E+00
         21   -1    0    0  503  502  0.00000000000E+00  0.00000000000E+00  0.24817732290E+04  0.24817732290E+04  0.00000000000E+00 0. -1.
         21   -1    0    0  501  503 -0.00000000000E+00 -0.00000000000E+00 -0.24752545992E+02  0.24752545992E+02  0.00000000000E+00 0. -1.
          6    1    1    2  501    0 -0.11611864793E+03 -0.34037531839E+02  0.57195922897E+03  0.60967897584E+03  0.17300000000E+03 0. -1.
         -6    1    1    2    0  502  0.11611864793E+03  0.34037531839E+02  0.18850614541E+04  0.18968467992E+04  0.17300000000E+03 0. -1.
<mgrwt>
<rscale>  2 0.21111867E+03</rscale>
<asrwt>0</asrwt>
<pdfrwt beam="1">  1       21 0.38181107E+00 0.21111867E+03</pdfrwt>
<pdfrwt beam="2">  1       21 0.38080860E-02 0.21111867E+03</pdfrwt>
<totfact> 0.46849520E+03</totfact>
</mgrwt>
</event>
<event>
 4    1  0.4441180E+000  0.1980512E+03  0.7546771E-02  0.1151394E+00
         21   -1    0    0  501  502  0.00000000000E+00  0.00000000000E+00  0.22456857768E+04  0.22456857768E+04  0.00000000000E+00 0. -1.
         21   -1    0    0  502  503 -0.00000000000E+00 -0.00000000000E+00 -0.25412785169E+02  0.25412785169E+02  0.00000000000E+00 0. -1.
          6    1    1    2  501    0  0.88464287350E+02  0.38332324824E+02  0.17451187718E+04  0.17563211053E+04  0.17300000000E+03 0. -1.
         -6    1    1    2    0  503 -0.88464287350E+02 -0.38332324824E+02  0.47515421984E+03  0.51477745667E+03  0.17300000000E+03 0. -1.
<mgrwt>
<rscale>  2 0.19805125E+03</rscale>
<asrwt>0</asrwt>
<pdfrwt beam="1">  1       21 0.34548996E+00 0.19805125E+03</pdfrwt>
<pdfrwt beam="2">  1       21 0.39096610E-02 0.19805125E+03</pdfrwt>
<totfact> 0.75198006E+03</totfact>
</mgrwt>
</event>
<event>
 4    1  0.4441180E+000  0.2186304E+03  0.7546771E-02  0.1134908E+00
         21   -1    0    0  501  502  0.00000000000E+00  0.00000000000E+00  0.42372015356E+02  0.42372015356E+02  0.00000000000E+00 0. -1.
         21   -1    0    0  502  503 -0.00000000000E+00 -0.00000000000E+00 -0.13088017116E+04  0.13088017116E+04  0.00000000000E+00 0. -1.
          6    1    1    2  501    0 -0.13263852311E+03  0.16651707918E+02 -0.38217492340E+03  0.44029186827E+03  0.17300000000E+03 0. -1.
         -6    1    1    2    0  503  0.13263852311E+03 -0.16651707918E+02 -0.88425477285E+03  0.91088185870E+03  0.17300000000E+03 0. -1.
<mgrwt>
<rscale>  2 0.21863041E+03</rscale>
<asrwt>0</asrwt>
<pdfrwt beam="1">  1       21 0.65187725E-02 0.21863041E+03</pdfrwt>
<pdfrwt beam="2">  1       21 0.20135408E+00 0.21863041E+03</pdfrwt>
<totfact> 0.22088052E+04</totfact>
</mgrwt>
</event>
<event>
 4    1  0.4441180E+000  0.1809486E+03  0.7546771E-02  0.1166888E+00
         21   -1    0    0  501  502  0.00000000000E+00  0.00000000000E+00  0.21485056615E+03  0.21485056615E+03  0.00000000000E+00 0.  1.
         21   -1    0    0  502  503 -0.00000000000E+00 -0.00000000000E+00 -0.18287300977E+03  0.18287300977E+03  0.00000000000E+00 0.  1.
          6    1    1    2  501    0 -0.25364289537E+02 -0.46583836989E+02  0.97171120453E+02  0.20538896685E+03  0.17300000000E+03 0.  1.
         -6    1    1    2    0  503  0.25364289537E+02  0.46583836989E+02 -0.65193564067E+02  0.19233460908E+03  0.17300000000E+03 0.  1.
<mgrwt>
<rscale>  2 0.18094861E+03</rscale>
<asrwt>0</asrwt>
<pdfrwt beam="1">  1       21 0.33053933E-01 0.18094861E+03</pdfrwt>
<pdfrwt beam="2">  1       21 0.28134309E-01 0.18094861E+03</pdfrwt>
<totfact> 0.10683064E+05</totfact>
</mgrwt>
</event>
<event>
 4    1  0.4441180E+000  0.1954911E+03  0.7546771E-02  0.1153600E+00
         21   -1    0    0  501  502  0.00000000000E+00  0.00000000000E+00  0.23146798280E+03  0.23146798280E+03  0.00000000000E+00 0.  1.
         21   -1    0    0  502  503 -0.00000000000E+00 -0.00000000000E+00 -0.37357688655E+03  0.37357688655E+03  0.00000000000E+00 0.  1.
          6    1    1    2  501    0  0.71761379481E+02 -0.56018667951E+02  0.15493602653E+03  0.24944329829E+03  0.17300000000E+03 0.  1.
         -6    1    1    2    0  503 -0.71761379481E+02  0.56018667951E+02 -0.29704493028E+03  0.35560157107E+03  0.17300000000E+03 0.  1.
<mgrwt>
<rscale>  2 0.19549114E+03</rscale>
<asrwt>0</asrwt>
<pdfrwt beam="1">  1       21 0.35610459E-01 0.19549114E+03</pdfrwt>
<pdfrwt beam="2">  1       21 0.57473367E-01 0.19549114E+03</pdfrwt>
<totfact> 0.21566651E+04</totfact>
</mgrwt>
</event>
<event>
 4    1  0.4441180E+000  0.1936946E+03  0.7546771E-02  0.1155171E+00
         21   -1    0    0  501  502  0.00000000000E+00  0.00000000000E+00  0.81042715595E+03  0.81042715595E+03  0.00000000000E+00 0. -1.
         21   -1    0    0  502  503 -0.00000000000E+00 -0.00000000000E+00 -0.62801981485E+02  0.62801981485E+02  0.00000000000E+00 0. -1.
          6    1    1    2  501    0 -0.69169768010E+02  0.52954103814E+02  0.59766601232E+03  0.62826925454E+03  0.17300000000E+03 0. -1.
         -6    1    1    2    0  503  0.69169768010E+02 -0.52954103814E+02  0.14995916215E+03  0.24495988290E+03  0.17300000000E+03 0. -1.
<mgrwt>
<rscale>  2 0.19369459E+03</rscale>
<asrwt>0</asrwt>
<pdfrwt beam="1">  1       21 0.12468109E+00 0.19369459E+03</pdfrwt>
<pdfrwt beam="2">  1       21 0.96618439E-02 0.19369459E+03</pdfrwt>
<totfact> 0.41372447E+04</totfact>
</mgrwt>
</event>
<event>
 4    1  0.4441180E+000  0.2366539E+03  0.7546771E-02  0.1122042E+00
         21   -1    0    0  503  502  0.00000000000E+00  0.00000000000E+00  0.48878900849E+03  0.48878900849E+03  0.00000000000E+00 0. -1.
         21   -1    0    0  501  503 -0.00000000000E+00 -0.00000000000E+00 -0.11899112209E+03  0.11899112209E+03  0.00000000000E+00 0.  1.
          6    1    1    2  501    0  0.77134634176E+02 -0.14186716686E+03  0.12638302556E+03  0.26828662652E+03  0.17300000000E+03 0.  1.
         -6    1    1    2    0  502 -0.77134634176E+02  0.14186716686E+03  0.24341486084E+03  0.33949350406E+03  0.17300000000E+03 0. -1.
<mgrwt>
<rscale>  2 0.23665385E+03</rscale>
<asrwt>0</asrwt>
<pdfrwt beam="1">  1       21 0.75198308E-01 0.23665385E+03</pdfrwt>
<pdfrwt beam="2">  1       21 0.18306327E-01 0.23665385E+03</pdfrwt>
<totfact> 0.42103188E+04</totfact>
</mgrwt>
</event>
<event>
 4    1  0.4441180E+000  0.1953483E+03  0.7546771E-02  0.1153724E+00
         21   -1    0    0  503  502  0.00000000000E+00  0.00000000000E+00  0.35955222130E+03  0.35955222130E+03  0.00000000000E+00 0. -1.
         21   -1    0    0  501  503 -0.00000000000E+00 -0.00000000000E+00 -0.10614113893E+03  0.10614113893E+03  0.00000000000E+00 0. -1.
          6    1    1    2  501    0  0.88820086658E+02  0.18519002291E+02  0.12488965862E+03  0.23185855186E+03  0.17300000000E+03 0. -1.
         -6    1    1    2    0  502 -0.88820086658E+02 -0.18519002291E+02  0.12852142375E+03  0.23383480836E+03  0.17300000000E+03 0. -1.
<mgrwt>
<rscale>  2 0.19534831E+03</rscale>
<asrwt>0</asrwt>
<pdfrwt beam="1">  1       21 0.55315726E-01 0.19534831E+03</pdfrwt>
<pdfrwt beam="2">  1       21 0.16329406E-01 0.19534831E+03</pdfrwt>
<totfact> 0.10340487E+05</totfact>
</mgrwt>
</event>
<event>
 4    1  0.4441180E+000  0.1866105E+03  0.7546771E-02  0.1161554E+00
         21   -1    0    0  503  502  0.00000000000E+00  0.00000000000E+00  0.21317850548E+03  0.21317850548E+03  0.00000000000E+00 0.  1.
         21   -1    0    0  501  503 -0.00000000000E+00 -0.00000000000E+00 -0.16387012971E+03  0.16387012971E+03  0.00000000000E+00 0.  1.
          6    1    1    2  501    0  0.48185970741E+02 -0.50720810689E+02  0.35237979133E+02  0.18990840841E+03  0.17300000000E+03 0.  1.
         -6    1    1    2    0  502 -0.48185970741E+02  0.50720810689E+02  0.14070396638E+02  0.18714022677E+03  0.17300000000E+03 0.  1.
<mgrwt>
<rscale>  2 0.18661053E+03</rscale>
<asrwt>0</asrwt>
<pdfrwt beam="1">  1       21 0.32796693E-01 0.18661053E+03</pdfrwt>
<pdfrwt beam="2">  1       21 0.25210789E-01 0.18661053E+03</pdfrwt>
<totfact> 0.13366122E+05</totfact>
</mgrwt>
</event>
<event>
 4    1  0.4441180E+000  0.1764451E+03  0.7546771E-02  0.1171289E+00
         21   -1    0    0  501  502  0.00000000000E+00  0.00000000000E+00  0.18980299902E+03  0.18980299902E+03  0.00000000000E+00 0. -1.
         21   -1    0    0  502  503 -0.00000000000E+00 -0.00000000000E+00 -0.17243508627E+03  0.17243508627E+03  0.00000000000E+00 0. -1.
          6    1    1    2  501    0  0.21666976955E+02  0.27099887074E+02 -0.31309939989E+02  0.17920149026E+03  0.17300000000E+03 0. -1.
         -6    1    1    2    0  503 -0.21666976955E+02 -0.27099887074E+02  0.48677852738E+02  0.18303659502E+03  0.17300000000E+03 0. -1.
<mgrwt>
<rscale>  2 0.17644507E+03</rscale>
<asrwt>0</asrwt>
<pdfrwt beam="1">  1       21 0.29200461E-01 0.17644507E+03</pdfrwt>
<pdfrwt beam="2">  1       21 0.26528475E-01 0.17644507E+03</pdfrwt>
<totfact> 0.15263336E+05</totfact>
</mgrwt>
</event>
<event>
 4    1  0.4441180E+000  0.2623346E+03  0.7546771E-02  0.1105749E+00
         21   -1    0    0  503  502  0.00000000000E+00  0.00000000000E+00  0.70510294626E+02  0.70510294626E+02  0.00000000000E+00 0.  1.
         21   -1    0    0  501  503 -0.00000000000E+00 -0.00000000000E+00 -0.10771149954E+04  0.10771149954E+04  0.00000000000E+00 0.  1.
          6    1    1    2  501    0  0.95565795356E+02 -0.17250395030E+03 -0.67909658486E+03  0.72800522366E+03  0.17300000000E+03 0.  1.
         -6    1    1    2    0  502 -0.95565795356E+02  0.17250395030E+03 -0.32750811593E+03  0.41962006638E+03  0.17300000000E+03 0.  1.
<mgrwt>
<rscale>  2 0.26233458E+03</rscale>
<asrwt>0</asrwt>
<pdfrwt beam="1">  1       21 0.10847737E-01 0.26233458E+03</pdfrwt>
<pdfrwt beam="2">  1       21 0.16571001E+00 0.26233458E+03</pdfrwt>
<totfact> 0.15374224E+04</totfact>
</mgrwt>
</event>
<event>
 4    1  0.4441180E+000  0.2263445E+03  0.7546771E-02  0.1129239E+00
         21   -1    0    0  501  502  0.00000000000E+00  0.00000000000E+00  0.24821799155E+03  0.24821799155E+03  0.00000000000E+00 0. -1.
         21   -1    0    0  502  503 -0.00000000000E+00 -0.00000000000E+00 -0.45847156365E+03  0.45847156365E+03  0.00000000000E+00 0. -1.
          6    1    1    2  501    0  0.11303060107E+03 -0.92341198302E+02  0.15687588603E+03  0.27539400375E+03  0.17300000000E+03 0. -1.
         -6    1    1    2    0  503 -0.11303060107E+03  0.92341198302E+02 -0.36712945812E+03  0.43129555145E+03  0.17300000000E+03 0. -1.
<mgrwt>
<rscale>  2 0.22634446E+03</rscale>
<asrwt>0</asrwt>
<pdfrwt beam="1">  1       21 0.38187384E-01 0.22634446E+03</pdfrwt>
<pdfrwt beam="2">  1       21 0.70534086E-01 0.22634446E+03</pdfrwt>
<totfact> 0.11792440E+04</totfact>
</mgrwt>
</event>
<event>
 4    1  0.4441180E+000  0.1974519E+03  0.7546771E-02  0.1151907E+00
         21   -1    0    0  501  502  0.00000000000E+00  0.00000000000E+00  0.75199669956E+03  0.75199669956E+03  0.00000000000E+00 0.  1.
         21   -1    0    0  502  503 -0.00000000000E+00 -0.00000000000E+00 -0.13607089758E+03  0.13607089758E+03  0.00000000000E+00 0.  1.
          6    1    1    2  501    0  0.91256809628E+02  0.27026717771E+02  0.65730932068E+03  0.68632557277E+03  0.17300000000E+03 0.  1.
         -6    1    1    2    0  503 -0.91256809628E+02 -0.27026717771E+02 -0.41383518708E+02  0.20174202437E+03  0.17300000000E+03 0.  1.
<mgrwt>
<rscale>  2 0.19745189E+03</rscale>
<asrwt>0</asrwt>
<pdfrwt beam="1">  1       21 0.11569180E+00 0.19745189E+03</pdfrwt>
<pdfrwt beam="2">  1       21 0.20933985E-01 0.19745189E+03</pdfrwt>
<totfact> 0.12203348E+04</totfact>
</mgrwt>
</event>
<event>
 4    1  0.4441180E+000  0.7015971E+03  0.7546771E-02  0.9714505E-01
         21   -1    0    0  501  502  0.00000000000E+00  0.00000000000E+00  0.34624054140E+03  0.34624054140E+03  0.00000000000E+00 0.  1.
         21   -1    0    0  502  503 -0.00000000000E+00 -0.00000000000E+00 -0.15286642847E+04  0.15286642847E+04  0.00000000000E+00 0. -1.
          6    1    1    2  501    0 -0.67757631519E+03 -0.56567608299E+02 -0.83922843792E+03  0.10938660467E+04  0.17300000000E+03 0.  1.
         -6    1    1    2    0  503  0.67757631519E+03  0.56567608299E+02 -0.34319530537E+03  0.78103877935E+03  0.17300000000E+03 0. -1.
<mgrwt>
<rscale>  2 0.70159715E+03</rscale>
<asrwt>0</asrwt>
<pdfrwt beam="1">  1       21 0.53267775E-01 0.70159715E+03</pdfrwt>
<pdfrwt beam="2">  1       21 0.23517912E+00 0.70159715E+03</pdfrwt>
<totfact> 0.19512446E+02</totfact>
</mgrwt>
</event>
<event>
 4    1  0.4441180E+000  0.2074158E+03  0.7546771E-02  0.1143629E+00
         21   -1    0    0  503  502  0.00000000000E+00  0.00000000000E+00  0.41936592041E+02  0.41936592041E+02  0.00000000000E+00 0. -1.
         21   -1    0    0  501  503 -0.00000000000E+00 -0.00000000000E+00 -0.10263373959E+04  0.10263373959E+04  0.00000000000E+00 0.  1.
          6    1    1    2  501    0 -0.97418646764E+02 -0.60016141570E+02 -0.48075492299E+03  0.52359013165E+03  0.17300000000E+03 0. -1.
         -6    1    1    2    0  502  0.97418646764E+02  0.60016141570E+02 -0.50364588090E+03  0.54468385632E+03  0.17300000000E+03 0.  1.
<mgrwt>
<rscale>  2 0.20741584E+03</rscale>
<asrwt>0</asrwt>
<pdfrwt beam="1">  1       21 0.64517835E-02 0.20741584E+03</pdfrwt>
<pdfrwt beam="2">  1       21 0.15789806E+00 0.20741584E+03</pdfrwt>
<totfact> 0.45012620E+04</totfact>
</mgrwt>
</event>
<event>
 4    1  0.4441180E+000  0.2931498E+03  0.7546771E-02  0.1088716E+00
         21   -1    0    0  501  502  0.00000000000E+00  0.00000000000E+00  0.71257585111E+02  0.71257585111E+02  0.00000000000E+00 0.  1.
         21   -1    0    0  502  503 -0.00000000000E+00 -0.00000000000E+00 -0.12275545060E+04  0.12275545060E+04  0.00000000000E+00 0. -1.
          6    1    1    2  501    0  0.57383137617E+02  0.22959744005E+03 -0.49210018623E+03  0.57279961788E+03  0.17300000000E+03 0. -1.
         -6    1    1    2    0  503 -0.57383137617E+02 -0.22959744005E+03 -0.66419673471E+03  0.72601247328E+03  0.17300000000E+03 0.  1.
<mgrwt>
<rscale>  2 0.29314981E+03</rscale>
<asrwt>0</asrwt>
<pdfrwt beam="1">  1       21 0.10962705E-01 0.29314981E+03</pdfrwt>
<pdfrwt beam="2">  1       21 0.18885454E+00 0.29314981E+03</pdfrwt>
<totfact> 0.10226540E+04</totfact>
</mgrwt>
</event>
<event>
 4    1  0.4441180E+000  0.2083939E+03  0.7546771E-02  0.1142844E+00
         21   -1    0    0  501  502  0.00000000000E+00  0.00000000000E+00  0.16042037999E+04  0.16042037999E+04  0.00000000000E+00 0.  1.
         21   -1    0    0  502  503 -0.00000000000E+00 -0.00000000000E+00 -0.27121958461E+02  0.27121958461E+02  0.00000000000E+00 0.  1.
          6    1    1    2  501    0 -0.61419779206E+02  0.98623613348E+02  0.82376538740E+03  0.84971608192E+03  0.17300000000E+03 0.  1.
         -6    1    1    2    0  503  0.61419779206E+02 -0.98623613348E+02  0.75331645403E+03  0.78160967644E+03  0.17300000000E+03 0.  1.
<mgrwt>
<rscale>  2 0.20839387E+03</rscale>
<asrwt>0</asrwt>
<pdfrwt beam="1">  1       21 0.24680051E+00 0.20839387E+03</pdfrwt>
<pdfrwt beam="2">  1       21 0.41726102E-02 0.20839387E+03</pdfrwt>
<totfact> 0.25023060E+04</totfact>
</mgrwt>
</event>
<event>
 4    1  0.4441180E+000  0.4129350E+03  0.7546771E-02  0.1039391E+00
         21   -1    0    0  503  502  0.00000000000E+00  0.00000000000E+00  0.20865904159E+03  0.20865904159E+03  0.00000000000E+00 0.  1.
         21   -1    0    0  501  503 -0.00000000000E+00 -0.00000000000E+00 -0.82026621319E+03  0.82026621319E+03  0.00000000000E+00 0. -1.
          6    1    1    2  501    0  0.61930233161E+01  0.37489726747E+03 -0.33727869757E+03  0.53317186209E+03  0.17300000000E+03 0.  1.
         -6    1    1    2    0  502 -0.61930233161E+01 -0.37489726747E+03 -0.27432847403E+03  0.49575339268E+03  0.17300000000E+03 0. -1.
<mgrwt>
<rscale>  2 0.41293500E+03</rscale>
<asrwt>0</asrwt>
<pdfrwt beam="1">  1       21 0.32101391E-01 0.41293500E+03</pdfrwt>
<pdfrwt beam="2">  1       21 0.12619480E+00 0.41293500E+03</pdfrwt>
<totfact> 0.38367788E+03</totfact>
</mgrwt>
</event>
<event>
 4    1  0.4441180E+000  0.1815724E+03  0.7546771E-02  0.1166290E+00
         21   -1    0    0  503  502  0.00000000000E+00  0.00000000000E+00  0.76004942459E+03  0.76004942459E+03  0.00000000000E+00 0.  1.
         21   -1    0    0  501  503 -0.00000000000E+00 -0.00000000000E+00 -0.50774508373E+02  0.50774508373E+02  0.00000000000E+00 0.  1.
          6    1    1    2  501    0 -0.45111868817E+02  0.31693174770E+02  0.50938412141E+03  0.54077788525E+03  0.17300000000E+03 0.  1.
         -6    1    1    2    0  502  0.45111868817E+02 -0.31693174770E+02  0.19989079481E+03  0.27004604771E+03  0.17300000000E+03 0.  1.
<mgrwt>
<rscale>  2 0.18157240E+03</rscale>
<asrwt>0</asrwt>
<pdfrwt beam="1">  1       21 0.11693067E+00 0.18157240E+03</pdfrwt>
<pdfrwt beam="2">  1       21 0.78114634E-02 0.18157240E+03</pdfrwt>
<totfact> 0.70779822E+04</totfact>
</mgrwt>
</event>
<event>
 4    1  0.4441180E+000  0.1734000E+03  0.7546771E-02  0.1174348E+00
         21   -1    0    0  503  502  0.00000000000E+00  0.00000000000E+00  0.16595222046E+03  0.16595222046E+03  0.00000000000E+00 0. -1.
         21   -1    0    0  501  503 -0.00000000000E+00 -0.00000000000E+00 -0.28424764120E+03  0.28424764120E+03  0.00000000000E+00 0. -1.
          6    1    1    2  501    0  0.10603731537E+02  0.51097209272E+01 -0.19469285595E+03  0.26071604578E+03  0.17300000000E+03 0. -1.
         -6    1    1    2    0  502 -0.10603731537E+02 -0.51097209272E+01  0.76397435214E+02  0.18948381587E+03  0.17300000000E+03 0. -1.
<mgrwt>
<rscale>  2 0.17339997E+03</rscale>
<asrwt>0</asrwt>
<pdfrwt beam="1">  1       21 0.25531111E-01 0.17339997E+03</pdfrwt>
<pdfrwt beam="2">  1       21 0.43730406E-01 0.17339997E+03</pdfrwt>
<totfact> 0.73712641E+04</totfact>
</mgrwt>
</event>
<event>
 4    1  0.4441180E+000  0.2144965E+03  0.7546771E-02  0.1138054E+00
         21   -1    0    0  503  502  0.00000000000E+00  0.00000000000E+00  0.66057205185E+02  0.66057205185E+02  0.00000000000E+00 0.  1.
         21   -1    0    0  501  503 -0.00000000000E+00 -0.00000000000E+00 -0.75651732196E+03  0.75651732196E+03  0.00000000000E+00 0. -1.
          6    1    1    2  501    0  0.12257997813E+03  0.32463830420E+02 -0.46107555955E+03  0.50852671802E+03  0.17300000000E+03 0. -1.
         -6    1    1    2    0  502 -0.12257997813E+03 -0.32463830420E+02 -0.22938455722E+03  0.31404780912E+03  0.17300000000E+03 0. -1.
<mgrwt>
<rscale>  2 0.21449651E+03</rscale>
<asrwt>0</asrwt>
<pdfrwt beam="1">  1       21 0.10162647E-01 0.21449651E+03</pdfrwt>
<pdfrwt beam="2">  1       21 0.11638728E+00 0.21449651E+03</pdfrwt>
<totfact> 0.44382782E+04</totfact>
</mgrwt>
</event>
<event>
 4    1  0.4441180E+000  0.1890483E+03  0.7546771E-02  0.1159323E+00
         21   -1    0    0  501  502  0.00000000000E+00  0.00000000000E+00  0.17880445480E+03  0.17880445480E+03  0.00000000000E+00 0.  1.
         21   -1    0    0  502  503 -0.00000000000E+00 -0.00000000000E+00 -0.22224787554E+03  0.22224787554E+03  0.00000000000E+00 0. -1.
          6    1    1    2  501    0 -0.12967356389E+02  0.75113890825E+02  0.41895508500E+02  0.19363492082E+03  0.17300000000E+03 0.  1.
         -6    1    1    2    0  503  0.12967356389E+02 -0.75113890825E+02 -0.85338929240E+02  0.20741740952E+03  0.17300000000E+03 0. -1.
<mgrwt>
<rscale>  2 0.18904827E+03</rscale>
<asrwt>0</asrwt>
<pdfrwt beam="1">  1       21 0.27508378E-01 0.18904827E+03</pdfrwt>
<pdfrwt beam="2">  1       21 0.34191981E-01 0.18904827E+03</pdfrwt>
<totfact> 0.10405606E+05</totfact>
</mgrwt>
</event>
<event>
 4    1  0.4441180E+000  0.2222923E+03  0.7546771E-02  0.1132186E+00
         21   -1    0    0  501  502  0.00000000000E+00  0.00000000000E+00  0.29957054080E+03  0.29957054080E+03  0.00000000000E+00 0.  1.
         21   -1    0    0  502  503 -0.00000000000E+00 -0.00000000000E+00 -0.27771301572E+03  0.27771301572E+03  0.00000000000E+00 0.  1.
          6    1    1    2  501    0 -0.42043435322E+02  0.13310603302E+03  0.19485610954E+03  0.29560576771E+03  0.17300000000E+03 0.  1.
         -6    1    1    2    0  503  0.42043435322E+02 -0.13310603302E+03 -0.17299858446E+03  0.28167778880E+03  0.17300000000E+03 0.  1.
<mgrwt>
<rscale>  2 0.22229230E+03</rscale>
<asrwt>0</asrwt>
<pdfrwt beam="1">  1       21 0.46087776E-01 0.22229230E+03</pdfrwt>
<pdfrwt beam="2">  1       21 0.42725079E-01 0.22229230E+03</pdfrwt>
<totfact> 0.23380433E+04</totfact>
</mgrwt>
</event>
<event>
 4    1  0.4441180E+000  0.2656771E+03  0.7546771E-02  0.1103780E+00
         21   -1    0    0  503  502  0.00000000000E+00  0.00000000000E+00  0.72856971323E+03  0.72856971323E+03  0.00000000000E+00 0.  1.
         21   -1    0    0  501  503 -0.00000000000E+00 -0.00000000000E+00 -0.10901805728E+03  0.10901805728E+03  0.00000000000E+00 0. -1.
          6    1    1    2  501    0  0.19620687405E+03  0.46456143285E+02  0.17003799802E+03  0.31543181742E+03  0.17300000000E+03 0. -1.
         -6    1    1    2    0  502 -0.19620687405E+03 -0.46456143285E+02  0.44951365793E+03  0.52215595308E+03  0.17300000000E+03 0.  1.
<mgrwt>
<rscale>  2 0.26567708E+03</rscale>
<asrwt>0</asrwt>
<pdfrwt beam="1">  1       21 0.11208765E+00 0.26567708E+03</pdfrwt>
<pdfrwt beam="2">  1       21 0.16772009E-01 0.26567708E+03</pdfrwt>
<totfact> 0.19158932E+04</totfact>
</mgrwt>
</event>
<event>
 4    1  0.4441180E+000  0.1979291E+03  0.7546771E-02  0.1151498E+00
         21   -1    0    0  501  502  0.00000000000E+00  0.00000000000E+00  0.58792193962E+02  0.58792193962E+02  0.00000000000E+00 0.  1.
         21   -1    0    0  502  503 -0.00000000000E+00 -0.00000000000E+00 -0.76277965694E+03  0.76277965694E+03  0.00000000000E+00 0. -1.
          6    1    1    2  501    0 -0.76295024259E+02  0.58531888480E+02 -0.20593366513E+03  0.28563015795E+03  0.17300000000E+03 0.  1.
         -6    1    1    2    0  503  0.76295024259E+02 -0.58531888480E+02 -0.49805379785E+03  0.53594169296E+03  0.17300000000E+03 0.  1.
<mgrwt>
<rscale>  2 0.19792906E+03</rscale>
<asrwt>0</asrwt>
<pdfrwt beam="1">  1       21 0.90449533E-02 0.19792906E+03</pdfrwt>
<pdfrwt beam="2">  1       21 0.11735071E+00 0.19792906E+03</pdfrwt>
<totfact> 0.53883402E+04</totfact>
</mgrwt>
</event>
<event>
 4    1  0.4441180E+000  0.1926093E+03  0.7546771E-02  0.1156129E+00
         21   -1    0    0  501  502  0.00000000000E+00  0.00000000000E+00  0.43831690094E+03  0.43831690094E+03  0.00000000000E+00 0.  1.
         21   -1    0    0  502  503 -0.00000000000E+00 -0.00000000000E+00 -0.17339890804E+03  0.17339890804E+03  0.00000000000E+00 0. -1.
          6    1    1    2  501    0 -0.14912822368E+02 -0.83348326551E+02  0.35128907058E+03  0.40062744154E+03  0.17300000000E+03 0.  1.
         -6    1    1    2    0  503  0.14912822368E+02  0.83348326551E+02 -0.86371077677E+02  0.21108836744E+03  0.17300000000E+03 0. -1.
<mgrwt>
<rscale>  2 0.19260928E+03</rscale>
<asrwt>0</asrwt>
<pdfrwt beam="1">  1       21 0.67433369E-01 0.19260928E+03</pdfrwt>
<pdfrwt beam="2">  1       21 0.26676755E-01 0.19260928E+03</pdfrwt>
<totfact> 0.26906453E+04</totfact>
</mgrwt>
</event>
<event>
 4    1  0.4441180E+000  0.1965898E+03  0.7546771E-02  0.1152649E+00
         21   -1    0    0  503  502  0.00000000000E+00  0.00000000000E+00  0.11477243915E+03  0.11477243915E+03  0.00000000000E+00 0. -1.
         21   -1    0    0  501  503 -0.00000000000E+00 -0.00000000000E+00 -0.43163475726E+03  0.43163475726E+03  0.00000000000E+00 0.  1.
          6    1    1    2  501    0  0.70915757827E+02 -0.60741274806E+02 -0.28653664889E+03  0.34749215578E+03  0.17300000000E+03 0.  1.
         -6    1    1    2    0  502 -0.70915757827E+02  0.60741274806E+02 -0.30325669225E+02  0.19891504063E+03  0.17300000000E+03 0. -1.
<mgrwt>
<rscale>  2 0.19658979E+03</rscale>
<asrwt>0</asrwt>
<pdfrwt beam="1">  1       21 0.17657299E-01 0.19658979E+03</pdfrwt>
<pdfrwt beam="2">  1       21 0.66405346E-01 0.19658979E+03</pdfrwt>
<totfact> 0.60402838E+04</totfact>
</mgrwt>
</event>
<event>
 4    1  0.4441180E+000  0.2130864E+03  0.7546771E-02  0.1139145E+00
         21   -1    0    0  503  502  0.00000000000E+00  0.00000000000E+00  0.10962046602E+03  0.10962046602E+03  0.00000000000E+00 0. -1.
         21   -1    0    0  501  503 -0.00000000000E+00 -0.00000000000E+00 -0.43395695996E+03  0.43395695996E+03  0.00000000000E+00 0.  1.
          6    1    1    2  501    0  0.50688766666E+02  0.11361098588E+03 -0.10418976463E+03  0.23719467581E+03  0.17300000000E+03 0. -1.
         -6    1    1    2    0  502 -0.50688766666E+02 -0.11361098588E+03 -0.22014672930E+03  0.30638275017E+03  0.17300000000E+03 0.  1.
<mgrwt>
<rscale>  2 0.21308638E+03</rscale>
<asrwt>0</asrwt>
<pdfrwt beam="1">  1       21 0.16864687E-01 0.21308638E+03</pdfrwt>
<pdfrwt beam="2">  1       21 0.66762610E-01 0.21308638E+03</pdfrwt>
<totfact> 0.64484013E+04</totfact>
</mgrwt>
</event>
<event>
 4    1  0.4441180E+000  0.1749928E+03  0.7546771E-02  0.1172739E+00
         21   -1    0    0  503  502  0.00000000000E+00  0.00000000000E+00  0.25761044270E+03  0.25761044270E+03  0.00000000000E+00 0. -1.
         21   -1    0    0  501  503 -0.00000000000E+00 -0.00000000000E+00 -0.13600986037E+03  0.13600986037E+03  0.00000000000E+00 0. -1.
          6    1    1    2  501    0  0.25761250850E+02  0.54634130262E+01 -0.90630472196E+01  0.17522736588E+03  0.17300000000E+03 0. -1.
         -6    1    1    2    0  502 -0.25761250850E+02 -0.54634130262E+01  0.13066362956E+03  0.21839293719E+03  0.17300000000E+03 0. -1.
<mgrwt>
<rscale>  2 0.17499283E+03</rscale>
<asrwt>0</asrwt>
<pdfrwt beam="1">  1       21 0.39632376E-01 0.17499283E+03</pdfrwt>
<pdfrwt beam="2">  1       21 0.20924594E-01 0.17499283E+03</pdfrwt>
<totfact> 0.13095934E+05</totfact>
</mgrwt>
</event>
<event>
 4    1  0.4441180E+000  0.2018581E+03  0.7546771E-02  0.1148181E+00
         21   -1    0    0  503  502  0.00000000000E+00  0.00000000000E+00  0.10715895944E+03  0.10715895944E+03  0.00000000000E+00 0. -1.
         21   -1    0    0  501  503 -0.00000000000E+00 -0.00000000000E+00 -0.52817885345E+03  0.52817885345E+03  0.00000000000E+00 0. -1.
          6    1    1    2  501    0  0.99661585465E+02  0.29753160801E+02 -0.37862928227E+03  0.42907670129E+03  0.17300000000E+03 0. -1.
         -6    1    1    2    0  502 -0.99661585465E+02 -0.29753160801E+02 -0.42390611742E+02  0.20626111160E+03  0.17300000000E+03 0. -1.
<mgrwt>
<rscale>  2 0.20185807E+03</rscale>
<asrwt>0</asrwt>
<pdfrwt beam="1">  1       21 0.16485994E-01 0.20185807E+03</pdfrwt>
<pdfrwt beam="2">  1       21 0.81258284E-01 0.20185807E+03</pdfrwt>
<totfact> 0.43613187E+04</totfact>
</mgrwt>
</event>
<event>
 4    1  0.4441180E+000  0.1843483E+03  0.7546771E-02  0.1163660E+00
         21   -1    0    0  503  502  0.00000000000E+00  0.00000000000E+00  0.15385680409E+03  0.15385680409E+03  0.00000000000E+00 0. -1.
         21   -1    0    0  501  503 -0.00000000000E+00 -0.00000000000E+00 -0.22117447456E+03  0.22117447456E+03  0.00000000000E+00 0. -1.
          6    1    1    2  501    0 -0.60269016498E+02 -0.20565480664E+02 -0.40470548720E+02  0.18873833383E+03  0.17300000000E+03 0. -1.
         -6    1    1    2    0  502  0.60269016498E+02  0.20565480664E+02 -0.26847121746E+02  0.18629294482E+03  0.17300000000E+03 0. -1.
<mgrwt>
<rscale>  2 0.18434829E+03</rscale>
<asrwt>0</asrwt>
<pdfrwt beam="1">  1       21 0.23670278E-01 0.18434829E+03</pdfrwt>
<pdfrwt beam="2">  1       21 0.34026842E-01 0.18434829E+03</pdfrwt>
<totfact> 0.14024966E+05</totfact>
</mgrwt>
</event>
<event>
 4    1  0.4441180E+000  0.1999498E+03  0.7546771E-02  0.1149781E+00
         21   -1    0    0  503  502  0.00000000000E+00  0.00000000000E+00  0.93500610185E+02  0.93500610185E+02  0.00000000000E+00 0.  1.
         21   -1    0    0  501  503 -0.00000000000E+00 -0.00000000000E+00 -0.62551337335E+03  0.62551337335E+03  0.00000000000E+00 0.  1.
          6    1    1    2  501    0 -0.10024932626E+03 -0.10015100851E+01 -0.46823263247E+03  0.50913822146E+03  0.17300000000E+03 0.  1.
         -6    1    1    2    0  502  0.10024932626E+03  0.10015100851E+01 -0.63780130701E+02  0.20987576208E+03  0.17300000000E+03 0.  1.
<mgrwt>
<rscale>  2 0.19994982E+03</rscale>
<asrwt>0</asrwt>
<pdfrwt beam="1">  1       21 0.14384709E-01 0.19994982E+03</pdfrwt>
<pdfrwt beam="2">  1       21 0.96232829E-01 0.19994982E+03</pdfrwt>
<totfact> 0.37895637E+04</totfact>
</mgrwt>
</event>
<event>
 4    1  0.4441180E+000  0.1982240E+03  0.7546771E-02  0.1151246E+00
         21   -1    0    0  503  502  0.00000000000E+00  0.00000000000E+00  0.10917789735E+04  0.10917789735E+04  0.00000000000E+00 0. -1.
         21   -1    0    0  501  503 -0.00000000000E+00 -0.00000000000E+00 -0.41627553177E+02  0.41627553177E+02  0.00000000000E+00 0. -1.
          6    1    1    2  501    0 -0.92963072895E+02  0.26862923517E+02  0.31651915222E+03  0.37346636168E+03  0.17300000000E+03 0. -1.
         -6    1    1    2    0  502  0.92963072895E+02 -0.26862923517E+02  0.73363226814E+03  0.75994016504E+03  0.17300000000E+03 0. -1.
<mgrwt>
<rscale>  2 0.19822399E+03</rscale>
<asrwt>0</asrwt>
<pdfrwt beam="1">  1       21 0.16796597E+00 0.19822399E+03</pdfrwt>
<pdfrwt beam="2">  1       21 0.64042398E-02 0.19822399E+03</pdfrwt>
<totfact> 0.38751284E+04</totfact>
</mgrwt>
</event>
<event>
 4    1  0.4441180E+000  0.1886708E+03  0.7546771E-02  0.1159666E+00
         21   -1    0    0  503  502  0.00000000000E+00  0.00000000000E+00  0.54112358462E+02  0.54112358462E+02  0.00000000000E+00 0. -1.
         21   -1    0    0  501  503 -0.00000000000E+00 -0.00000000000E+00 -0.66622298685E+03  0.66622298685E+03  0.00000000000E+00 0. -1.
          6    1    1    2  501    0 -0.72732530401E+02 -0.19433399686E+02 -0.34648304611E+03  0.39452145600E+03  0.17300000000E+03 0. -1.
         -6    1    1    2    0  502  0.72732530401E+02  0.19433399686E+02 -0.26562758227E+03  0.32581388931E+03  0.17300000000E+03 0. -1.
<mgrwt>
<rscale>  2 0.18867082E+03</rscale>
<asrwt>0</asrwt>
<pdfrwt beam="1">  1       21 0.83249784E-02 0.18867082E+03</pdfrwt>
<pdfrwt beam="2">  1       21 0.10249584E+00 0.18867082E+03</pdfrwt>
<totfact> 0.86815576E+04</totfact>
</mgrwt>
</event>
<event>
 4    1  0.4441180E+000  0.1831592E+03  0.7546771E-02  0.1164780E+00
         21   -1    0    0  501  502  0.00000000000E+00  0.00000000000E+00  0.27373075948E+03  0.27373075948E+03  0.00000000000E+00 0. -1.
         21   -1    0    0  502  503 -0.00000000000E+00 -0.00000000000E+00 -0.12255909568E+03  0.12255909568E+03  0.00000000000E+00 0. -1.
          6    1    1    2  501    0  0.87095765009E+01 -0.59518236448E+02  0.76621852882E+02  0.19854013582E+03  0.17300000000E+03 0.  1.
         -6    1    1    2    0  503 -0.87095765009E+01  0.59518236448E+02  0.74549810915E+02  0.19774971934E+03  0.17300000000E+03 0.  1.
<mgrwt>
<rscale>  2 0.18315916E+03</rscale>
<asrwt>0</asrwt>
<pdfrwt beam="1">  1       21 0.42112424E-01 0.18315916E+03</pdfrwt>
<pdfrwt beam="2">  1       21 0.18855246E-01 0.18315916E+03</pdfrwt>
<totfact> 0.14023978E+05</totfact>
</mgrwt>
</event>
<event>
 4    1  0.4441180E+000  0.2234633E+03  0.7546771E-02  0.1131327E+00
         21   -1    0    0  503  502  0.00000000000E+00  0.00000000000E+00  0.45193293227E+03  0.45193293227E+03  0.00000000000E+00 0.  1.
         21   -1    0    0  501  503 -0.00000000000E+00 -0.00000000000E+00 -0.16130310740E+03  0.16130310740E+03  0.00000000000E+00 0.  1.
          6    1    1    2  501    0 -0.12544333172E+03  0.65351485314E+02 -0.26771819277E+02  0.22506127258E+03  0.17300000000E+03 0.  1.
         -6    1    1    2    0  502  0.12544333172E+03 -0.65351485314E+02  0.31740164415E+03  0.38817476710E+03  0.17300000000E+03 0.  1.
<mgrwt>
<rscale>  2 0.22346330E+03</rscale>
<asrwt>0</asrwt>
<pdfrwt beam="1">  1       21 0.69528143E-01 0.22346330E+03</pdfrwt>
<pdfrwt beam="2">  1       21 0.24815863E-01 0.22346330E+03</pdfrwt>
<totfact> 0.28413635E+04</totfact>
</mgrwt>
</event>
<event>
 4    1  0.4441180E+000  0.1995001E+03  0.7546771E-02  0.1150161E+00
         21   -1    0    0  503  502  0.00000000000E+00  0.00000000000E+00  0.38406830683E+02  0.38406830683E+02  0.00000000000E+00 0.  1.
         21   -1    0    0  501  503 -0.00000000000E+00 -0.00000000000E+00 -0.14796487564E+04  0.14796487564E+04  0.00000000000E+00 0.  1.
          6    1    1    2  501    0 -0.27158943031E+02  0.95570233643E+02 -0.11361107016E+04  0.11534937382E+04  0.17300000000E+03 0.  1.
         -6    1    1    2    0  502  0.27158943031E+02 -0.95570233643E+02 -0.30513122416E+03  0.36456184894E+03  0.17300000000E+03 0.  1.
<mgrwt>
<rscale>  2 0.19950007E+03</rscale>
<asrwt>0</asrwt>
<pdfrwt beam="1">  1       21 0.59087435E-02 0.19950007E+03</pdfrwt>
<pdfrwt beam="2">  1       21 0.22763826E+00 0.19950007E+03</pdfrwt>
<totfact> 0.18190273E+04</totfact>
</mgrwt>
</event>
<event>
 4    1  0.4441180E+000  0.2518870E+03  0.7546771E-02  0.1112118E+00
         21   -1    0    0  503  502  0.00000000000E+00  0.00000000000E+00  0.83951902490E+02  0.83951902490E+02  0.00000000000E+00 0.  1.
         21   -1    0    0  501  503 -0.00000000000E+00 -0.00000000000E+00 -0.13250169072E+04  0.13250169072E+04  0.00000000000E+00 0. -1.
          6    1    1    2  501    0  0.17025856383E+03  0.67306045360E+02 -0.10822928961E+04  0.11112177983E+04  0.17300000000E+03 0. -1.
         -6    1    1    2    0  502 -0.17025856383E+03 -0.67306045360E+02 -0.15877210855E+03  0.29775101134E+03  0.17300000000E+03 0.  1.
<mgrwt>
<rscale>  2 0.25188704E+03</rscale>
<asrwt>0</asrwt>
<pdfrwt beam="1">  1       21 0.12915678E-01 0.25188704E+03</pdfrwt>
<pdfrwt beam="2">  1       21 0.20384875E+00 0.25188704E+03</pdfrwt>
<totfact> 0.62202672E+03</totfact>
</mgrwt>
</event>
<event>
 4    1  0.4441180E+000  0.1895639E+03  0.7546771E-02  0.1158855E+00
         21   -1    0    0  501  502  0.00000000000E+00  0.00000000000E+00  0.85049333192E+03  0.85049333192E+03  0.00000000000E+00 0. -1.
         21   -1    0    0  502  503 -0.00000000000E+00 -0.00000000000E+00 -0.46512973819E+02  0.46512973819E+02  0.00000000000E+00 0. -1.
          6    1    1    2  501    0  0.22207120700E+02 -0.74244873446E+02  0.53774899426E+03  0.57018281128E+03  0.17300000000E+03 0. -1.
         -6    1    1    2    0  503 -0.22207120700E+02  0.74244873446E+02  0.26623136383E+03  0.32682349446E+03  0.17300000000E+03 0. -1.
<mgrwt>
<rscale>  2 0.18956386E+03</rscale>
<asrwt>0</asrwt>
<pdfrwt beam="1">  1       21 0.13084512E+00 0.18956386E+03</pdfrwt>
<pdfrwt beam="2">  1       21 0.71558427E-02 0.18956386E+03</pdfrwt>
<totfact> 0.62019316E+04</totfact>
</mgrwt>
</event>
<event>
 4    1  0.4441180E+000  0.1754434E+03  0.7546771E-02  0.1172287E+00
         21   -1    0    0  501  502  0.00000000000E+00  0.00000000000E+00  0.56263408684E+03  0.56263408684E+03  0.00000000000E+00 0.  1.
         21   -1    0    0  502  503 -0.00000000000E+00 -0.00000000000E+00 -0.14343061345E+03  0.14343061345E+03  0.00000000000E+00 0.  1.
          6    1    1    2  501    0  0.26423364086E+02 -0.12377499997E+02  0.48726061244E+03  0.51788348218E+03  0.17300000000E+03 0.  1.
         -6    1    1    2    0  503 -0.26423364086E+02  0.12377499997E+02 -0.68057139052E+02  0.18818121812E+03  0.17300000000E+03 0.  1.
<mgrwt>
<rscale>  2 0.17544343E+03</rscale>
<asrwt>0</asrwt>
<pdfrwt beam="1">  1       21 0.86559089E-01 0.17544343E+03</pdfrwt>
<pdfrwt beam="2">  1       21 0.22066249E-01 0.17544343E+03</pdfrwt>
<totfact> 0.22290261E+04</totfact>
</mgrwt>
</event>
<event>
 4    1  0.4441180E+000  0.1918999E+03  0.7546771E-02  0.1156759E+00
         21   -1    0    0  503  502  0.00000000000E+00  0.00000000000E+00  0.11013136623E+03  0.11013136623E+03  0.00000000000E+00 0. -1.
         21   -1    0    0  501  503 -0.00000000000E+00 -0.00000000000E+00 -0.35011211950E+03  0.35011211950E+03  0.00000000000E+00 0. -1.
          6    1    1    2  501    0 -0.71448550210E+02 -0.42328418851E+02 -0.16877295249E+03  0.25555801662E+03  0.17300000000E+03 0. -1.
         -6    1    1    2    0  502  0.71448550210E+02  0.42328418851E+02 -0.71207800787E+02  0.20468546910E+03  0.17300000000E+03 0. -1.
<mgrwt>
<rscale>  2 0.19189995E+03</rscale>
<asrwt>0</asrwt>
<pdfrwt beam="1">  1       21 0.16943287E-01 0.19189995E+03</pdfrwt>
<pdfrwt beam="2">  1       21 0.53863402E-01 0.19189995E+03</pdfrwt>
<totfact> 0.10235832E+05</totfact>
</mgrwt>
</event>
<event>
 4    1  0.4441180E+000  0.1756896E+03  0.7546771E-02  0.1172041E+00
         21   -1    0    0  503  502  0.00000000000E+00  0.00000000000E+00  0.85673044604E+02  0.85673044604E+02  0.00000000000E+00 0.  1.
         21   -1    0    0  501  503 -0.00000000000E+00 -0.00000000000E+00 -0.40898725836E+03  0.40898725836E+03  0.00000000000E+00 0.  1.
          6    1    1    2  501    0 -0.28619768741E+02 -0.10896881973E+02 -0.76309674058E+02  0.19154633788E+03  0.17300000000E+03 0.  1.
         -6    1    1    2    0  502  0.28619768741E+02  0.10896881973E+02 -0.24700453970E+03  0.30311396509E+03  0.17300000000E+03 0.  1.
<mgrwt>
<rscale>  2 0.17568959E+03</rscale>
<asrwt>0</asrwt>
<pdfrwt beam="1">  1       21 0.13180468E-01 0.17568959E+03</pdfrwt>
<pdfrwt beam="2">  1       21 0.62921117E-01 0.17568959E+03</pdfrwt>
<totfact> 0.11669174E+05</totfact>
</mgrwt>
</event>
<event>
 4    1  0.4441180E+000  0.1908459E+03  0.7546771E-02  0.1157701E+00
         21   -1    0    0  503  502  0.00000000000E+00  0.00000000000E+00  0.22235708828E+03  0.22235708828E+03  0.00000000000E+00 0.  1.
         21   -1    0    0  501  503 -0.00000000000E+00 -0.00000000000E+00 -0.32906398541E+03  0.32906398541E+03  0.00000000000E+00 0.  1.
          6    1    1    2  501    0 -0.71064494966E+02 -0.37987009216E+02 -0.24874320892E+03  0.31352090727E+03  0.17300000000E+03 0.  1.
         -6    1    1    2    0  502  0.71064494966E+02  0.37987009216E+02  0.14203631179E+03  0.23790016642E+03  0.17300000000E+03 0.  1.
<mgrwt>
<rscale>  2 0.19084595E+03</rscale>
<asrwt>0</asrwt>
<pdfrwt beam="1">  1       21 0.34208783E-01 0.19084595E+03</pdfrwt>
<pdfrwt beam="2">  1       21 0.50625229E-01 0.19084595E+03</pdfrwt>
<totfact> 0.30603279E+04</totfact>
</mgrwt>
</event>
<event>
 4    1  0.4441180E+000  0.1944456E+03  0.7546771E-02  0.1154512E+00
         21   -1    0    0  503  502  0.00000000000E+00  0.00000000000E+00  0.20666391799E+02  0.20666391799E+02  0.00000000000E+00 0.  1.
         21   -1    0    0  501  503 -0.00000000000E+00 -0.00000000000E+00 -0.18371670821E+04  0.18371670821E+04  0.00000000000E+00 0. -1.
          6    1    1    2  501    0  0.88761982077E+02  0.11806550554E+01 -0.96827472120E+03  0.98760570023E+03  0.17300000000E+03 0. -1.
         -6    1    1    2    0  502 -0.88761982077E+02 -0.11806550554E+01 -0.84822596907E+03  0.87022777364E+03  0.17300000000E+03 0. -1.
<mgrwt>
<rscale>  2 0.19444558E+03</rscale>
<asrwt>0</asrwt>
<pdfrwt beam="1">  1       21 0.31794448E-02 0.19444558E+03</pdfrwt>
<pdfrwt beam="2">  1       21 0.28264110E+00 0.19444558E+03</pdfrwt>
<totfact> 0.24651050E+04</totfact>
</mgrwt>
</event>
<event>
 4    1  0.4441180E+000  0.2820796E+03  0.7546771E-02  0.1094559E+00
         21   -1    0    0  501  502  0.00000000000E+00  0.00000000000E+00  0.15349851339E+03  0.15349851339E+03  0.00000000000E+00 0. -1.
         21   -1    0    0  502  503 -0.00000000000E+00 -0.00000000000E+00 -0.55126476286E+03  0.55126476286E+03  0.00000000000E+00 0.  1.
          6    1    1    2  501    0 -0.13875529020E+03 -0.17431826176E+03 -0.11280308787E+03  0.30379832714E+03  0.17300000000E+03 0.  1.
         -6    1    1    2    0  503  0.13875529020E+03  0.17431826176E+03 -0.28496316161E+03  0.40096494911E+03  0.17300000000E+03 0. -1.
<mgrwt>
<rscale>  2 0.28207958E+03</rscale>
<asrwt>0</asrwt>
<pdfrwt beam="1">  1       21 0.23615156E-01 0.28207958E+03</pdfrwt>
<pdfrwt beam="2">  1       21 0.84809964E-01 0.28207958E+03</pdfrwt>
<totfact> 0.19404257E+04</totfact>
</mgrwt>
</event>
<event>
 4    1  0.4441180E+000  0.1778138E+03  0.7546771E-02  0.1169936E+00
         21   -1    0    0  503  502  0.00000000000E+00  0.00000000000E+00  0.38373691717E+03  0.38373691717E+03  0.00000000000E+00 0.  1.
         21   -1    0    0  501  503 -0.00000000000E+00 -0.00000000000E+00 -0.88004349185E+02  0.88004349185E+02  0.00000000000E+00 0.  1.
          6    1    1    2  501    0 -0.27290354848E+00  0.41093452216E+02  0.88313239611E+02  0.19853708616E+03  0.17300000000E+03 0.  1.
         -6    1    1    2    0  502  0.27290354848E+00 -0.41093452216E+02  0.20741932837E+03  0.27320418019E+03  0.17300000000E+03 0.  1.
<mgrwt>
<rscale>  2 0.17781380E+03</rscale>
<asrwt>0</asrwt>
<pdfrwt beam="1">  1       21 0.59036448E-01 0.17781380E+03</pdfrwt>
<pdfrwt beam="2">  1       21 0.13539131E-01 0.17781380E+03</pdfrwt>
<totfact> 0.12739411E+05</totfact>
</mgrwt>
</event>
<event>
 4    1  0.4441180E+000  0.2183072E+03  0.7546771E-02  0.1135151E+00
         21   -1    0    0  503  502  0.00000000000E+00  0.00000000000E+00  0.38795011633E+02  0.38795011633E+02  0.00000000000E+00 0.  1.
         21   -1    0    0  501  503 -0.00000000000E+00 -0.00000000000E+00 -0.25276659883E+04  0.25276659883E+04  0.00000000000E+00 0.  1.
          6    1    1    2  501    0 -0.91650849762E+02  0.96587566787E+02 -0.21644278008E+04  0.21754093273E+04  0.17300000000E+03 0.  1.
         -6    1    1    2    0  502  0.91650849762E+02 -0.96587566787E+02 -0.32444317585E+03  0.39105167264E+03  0.17300000000E+03 0.  1.
<mgrwt>
<rscale>  2 0.21830721E+03</rscale>
<asrwt>0</asrwt>
<pdfrwt beam="1">  1       21 0.59684608E-02 0.21830721E+03</pdfrwt>
<pdfrwt beam="2">  1       21 0.38887186E+00 0.21830721E+03</pdfrwt>
<totfact> 0.19609015E+03</totfact>
</mgrwt>
</event>
<event>
 4    1  0.4441180E+000  0.1879092E+03  0.7546771E-02  0.1160361E+00
         21   -1    0    0  503  502  0.00000000000E+00  0.00000000000E+00  0.81665936941E+02  0.81665936941E+02  0.00000000000E+00 0. -1.
         21   -1    0    0  501  503 -0.00000000000E+00 -0.00000000000E+00 -0.45826518738E+03  0.45826518738E+03  0.00000000000E+00 0. -1.
          6    1    1    2  501    0  0.71300608086E+02 -0.17236704147E+02 -0.25247398801E+03  0.31472685825E+03  0.17300000000E+03 0. -1.
         -6    1    1    2    0  502 -0.71300608086E+02  0.17236704147E+02 -0.12412526243E+03  0.22520426607E+03  0.17300000000E+03 0. -1.
<mgrwt>
<rscale>  2 0.18790924E+03</rscale>
<asrwt>0</asrwt>
<pdfrwt beam="1">  1       21 0.12563990E-01 0.18790924E+03</pdfrwt>
<pdfrwt beam="2">  1       21 0.70502336E-01 0.18790924E+03</pdfrwt>
<totfact> 0.98756654E+04</totfact>
</mgrwt>
</event>
<event>
 4    1  0.4441180E+000  0.2429265E+03  0.7546771E-02  0.1117859E+00
         21   -1    0    0  503  502  0.00000000000E+00  0.00000000000E+00  0.36138053057E+04  0.36138053057E+04  0.00000000000E+00 0.  1.
         21   -1    0    0  501  503 -0.00000000000E+00 -0.00000000000E+00 -0.42336915512E+02  0.42336915512E+02  0.00000000000E+00 0. -1.
          6    1    1    2  501    0  0.12773056472E+03 -0.11300079796E+03  0.35295825900E+03  0.42847731574E+03  0.17300000000E+03 0. -1.
         -6    1    1    2    0  502 -0.12773056472E+03  0.11300079796E+03  0.32185101312E+04  0.32276649055E+04  0.17300000000E+03 0.  1.
<mgrwt>
<rscale>  2 0.24292649E+03</rscale>
<asrwt>0</asrwt>
<pdfrwt beam="1">  1       21 0.55596981E+00 0.24292649E+03</pdfrwt>
<pdfrwt beam="2">  1       21 0.65133744E-02 0.24292649E+03</pdfrwt>
<totfact> 0.11720373E+02</totfact>
</mgrwt>
</event>
<event>
 4    1  0.4441180E+000  0.1961194E+03  0.7546771E-02  0.1153055E+00
         21   -1    0    0  503  502  0.00000000000E+00  0.00000000000E+00  0.13328950550E+03  0.13328950550E+03  0.00000000000E+00 0. -1.
         21   -1    0    0  501  503 -0.00000000000E+00 -0.00000000000E+00 -0.29408983029E+03  0.29408983029E+03  0.00000000000E+00 0. -1.
          6    1    1    2  501    0  0.83295420419E+02  0.39946294607E+02 -0.10968612710E+03  0.22470843330E+03  0.17300000000E+03 0. -1.
         -6    1    1    2    0  502 -0.83295420419E+02 -0.39946294607E+02 -0.51114197688E+02  0.20267090250E+03  0.17300000000E+03 0. -1.
<mgrwt>
<rscale>  2 0.19611944E+03</rscale>
<asrwt>0</asrwt>
<pdfrwt beam="1">  1       21 0.20506078E-01 0.19611944E+03</pdfrwt>
<pdfrwt beam="2">  1       21 0.45244590E-01 0.19611944E+03</pdfrwt>
<totfact> 0.10309296E+05</totfact>
</mgrwt>
</event>
<event>
 4    1  0.4441180E+000  0.1982743E+03  0.7546771E-02  0.1151203E+00
         21   -1    0    0  501  502  0.00000000000E+00  0.00000000000E+00  0.44120964243E+03  0.44120964243E+03  0.00000000000E+00 0. -1.
         21   -1    0    0  502  503 -0.00000000000E+00 -0.00000000000E+00 -0.96844199008E+02  0.96844199008E+02  0.00000000000E+00 0.  1.
          6    1    1    2  501    0 -0.48318111139E+02  0.83958624917E+02  0.24824849007E+03  0.31771056543E+03  0.17300000000E+03 0. -1.
         -6    1    1    2    0  503  0.48318111139E+02 -0.83958624917E+02  0.96116953355E+02  0.22034327601E+03  0.17300000000E+03 0.  1.
<mgrwt>
<rscale>  2 0.19827428E+03</rscale>
<asrwt>0</asrwt>
<pdfrwt beam="1">  1       21 0.67878405E-01 0.19827428E+03</pdfrwt>
<pdfrwt beam="2">  1       21 0.14899108E-01 0.19827428E+03</pdfrwt>
<totfact> 0.78543218E+04</totfact>
</mgrwt>
</event>
<event>
 4    1  0.4441180E+000  0.2303182E+03  0.7546771E-02  0.1126416E+00
         21   -1    0    0  501  502  0.00000000000E+00  0.00000000000E+00  0.12262683084E+03  0.12262683084E+03  0.00000000000E+00 0.  1.
         21   -1    0    0  502  503 -0.00000000000E+00 -0.00000000000E+00 -0.52522025783E+03  0.52522025783E+03  0.00000000000E+00 0. -1.
          6    1    1    2  501    0  0.15028287478E+03  0.23076505893E+02 -0.65258447825E+02  0.23938490468E+03  0.17300000000E+03 0. -1.
         -6    1    1    2    0  503 -0.15028287478E+03 -0.23076505893E+02 -0.33733497916E+03  0.40846218398E+03  0.17300000000E+03 0. -1.
<mgrwt>
<rscale>  2 0.23031819E+03</rscale>
<asrwt>0</asrwt>
<pdfrwt beam="1">  1       21 0.18865666E-01 0.23031819E+03</pdfrwt>
<pdfrwt beam="2">  1       21 0.80803117E-01 0.23031819E+03</pdfrwt>
<totfact> 0.33934992E+04</totfact>
</mgrwt>
</event>
<event>
 4    1  0.4441180E+000  0.3009713E+03  0.7546771E-02  0.1084756E+00
         21   -1    0    0  501  502  0.00000000000E+00  0.00000000000E+00  0.66826734640E+03  0.66826734640E+03  0.00000000000E+00 0.  1.
         21   -1    0    0  502  503 -0.00000000000E+00 -0.00000000000E+00 -0.14730663935E+03  0.14730663935E+03  0.00000000000E+00 0. -1.
          6    1    1    2  501    0 -0.84169395221E+02 -0.23145244251E+03  0.37568276115E+03  0.48137434213E+03  0.17300000000E+03 0.  1.
         -6    1    1    2    0  503  0.84169395221E+02  0.23145244251E+03  0.14527794589E+03  0.33419964362E+03  0.17300000000E+03 0. -1.
<mgrwt>
<rscale>  2 0.30097129E+03</rscale>
<asrwt>0</asrwt>
<pdfrwt beam="1">  1       21 0.10281036E+00 0.30097129E+03</pdfrwt>
<pdfrwt beam="2">  1       21 0.22662560E-01 0.30097129E+03</pdfrwt>
<totfact> 0.13214396E+04</totfact>
</mgrwt>
</event>
<event>
 4    1  0.4441180E+000  0.1737129E+03  0.7546771E-02  0.1174030E+00
         21   -1    0    0  503  502  0.00000000000E+00  0.00000000000E+00  0.52194073502E+03  0.52194073502E+03  0.00000000000E+00 0. -1.
         21   -1    0    0  501  503 -0.00000000000E+00 -0.00000000000E+00 -0.94634953124E+02  0.94634953124E+02  0.00000000000E+00 0. -1.
          6    1    1    2  501    0 -0.14950604125E+02 -0.48634175134E+01  0.21356863702E+02  0.17502082453E+03  0.17300000000E+03 0. -1.
         -6    1    1    2    0  502  0.14950604125E+02  0.48634175134E+01  0.40594891819E+03  0.44155486361E+03  0.17300000000E+03 0. -1.
<mgrwt>
<rscale>  2 0.17371291E+03</rscale>
<asrwt>0</asrwt>
<pdfrwt beam="1">  1       21 0.80298573E-01 0.17371291E+03</pdfrwt>
<pdfrwt beam="2">  1       21 0.14559224E-01 0.17371291E+03</pdfrwt>
<totfact> 0.56991247E+04</totfact>
</mgrwt>
</event>
<event>
 4    1  0.4441180E+000  0.2068901E+03  0.7546771E-02  0.1144053E+00
         21   -1    0    0  503  502  0.00000000000E+00  0.00000000000E+00  0.37128587729E+03  0.37128587729E+03  0.00000000000E+00 0.  1.
         21   -1    0    0  501  503 -0.00000000000E+00 -0.00000000000E+00 -0.22356151920E+03  0.22356151920E+03  0.00000000000E+00 0.  1.
          6    1    1    2  501    0 -0.50319245679E+00  0.11346479058E+03 -0.13312581753E+03  0.24602031460E+03  0.17300000000E+03 0.  1.
         -6    1    1    2    0  502  0.50319245679E+00 -0.11346479058E+03  0.28085017562E+03  0.34882708188E+03  0.17300000000E+03 0.  1.
<mgrwt>
<rscale>  2 0.20689010E+03</rscale>
<asrwt>0</asrwt>
<pdfrwt beam="1">  1       21 0.57120904E-01 0.20689010E+03</pdfrwt>
<pdfrwt beam="2">  1       21 0.34394080E-01 0.20689010E+03</pdfrwt>
<totfact> 0.23257521E+04</totfact>
</mgrwt>
</event>
<event>
 4    1  0.4441180E+000  0.2052760E+03  0.7546771E-02  0.1145362E+00
         21   -1    0    0  503  502  0.00000000000E+00  0.00000000000E+00  0.18947666899E+04  0.18947666899E+04  0.00000000000E+00 0. -1.
         21   -1    0    0  501  503 -0.00000000000E+00 -0.00000000000E+00 -0.22357340559E+02  0.22357340559E+02  0.00000000000E+00 0.  1.
          6    1    1    2  501    0  0.10827668393E+03  0.22032075861E+02  0.86654891521E+03  0.89053089508E+03  0.17300000000E+03 0.  1.
         -6    1    1    2    0  502 -0.10827668393E+03 -0.22032075861E+02  0.10058604342E+04  0.10265931354E+04  0.17300000000E+03 0. -1.
<mgrwt>
<rscale>  2 0.20527604E+03</rscale>
<asrwt>0</asrwt>
<pdfrwt beam="1">  1       21 0.29150244E+00 0.20527604E+03</pdfrwt>
<pdfrwt beam="2">  1       21 0.34395923E-02 0.20527604E+03</pdfrwt>
<totfact> 0.19032167E+04</totfact>
</mgrwt>
</event>
<event>
 4    1  0.4441180E+000  0.1867013E+03  0.7546771E-02  0.1161471E+00
         21   -1    0    0  503  502  0.00000000000E+00  0.00000000000E+00  0.17743172456E+03  0.17743172456E+03  0.00000000000E+00 0. -1.
         21   -1    0    0  501  503 -0.00000000000E+00 -0.00000000000E+00 -0.25234827491E+03  0.25234827491E+03  0.00000000000E+00 0. -1.
          6    1    1    2  501    0 -0.17827183898E+02  0.67901164942E+02 -0.13859181703E+03  0.23251896360E+03  0.17300000000E+03 0. -1.
         -6    1    1    2    0  502  0.17827183898E+02 -0.67901164942E+02  0.63675266683E+02  0.19726103587E+03  0.17300000000E+03 0. -1.
<mgrwt>
<rscale>  2 0.18670130E+03</rscale>
<asrwt>0</asrwt>
<pdfrwt beam="1">  1       21 0.27297188E-01 0.18670130E+03</pdfrwt>
<pdfrwt beam="2">  1       21 0.38822812E-01 0.18670130E+03</pdfrwt>
<totfact> 0.82059897E+04</totfact>
</mgrwt>
</event>
<event>
 4    1  0.4441180E+000  0.4404157E+03  0.7546771E-02  0.1030619E+00
         21   -1    0    0  501  502  0.00000000000E+00  0.00000000000E+00  0.44214544328E+03  0.44214544328E+03  0.00000000000E+00 0. -1.
         21   -1    0    0  502  503 -0.00000000000E+00 -0.00000000000E+00 -0.44607551789E+03  0.44607551789E+03  0.00000000000E+00 0.  1.
          6    1    1    2  501    0 -0.31272097394E+03  0.25737633735E+03  0.55169321259E+02  0.44385768055E+03  0.17300000000E+03 0. -1.
         -6    1    1    2    0  503  0.31272097394E+03 -0.25737633735E+03 -0.59099395872E+02  0.44436328062E+03  0.17300000000E+03 0.  1.
<mgrwt>
<rscale>  2 0.44041570E+03</rscale>
<asrwt>0</asrwt>
<pdfrwt beam="1">  1       21 0.68022375E-01 0.44041570E+03</pdfrwt>
<pdfrwt beam="2">  1       21 0.68627003E-01 0.44041570E+03</pdfrwt>
<totfact> 0.33450812E+03</totfact>
</mgrwt>
</event>
<event>
 4    1  0.4441180E+000  0.2871784E+03  0.7546771E-02  0.1091832E+00
         21   -1    0    0  503  502  0.00000000000E+00  0.00000000000E+00  0.66563969600E+03  0.66563969600E+03  0.00000000000E+00 0. -1.
         21   -1    0    0  501  503 -0.00000000000E+00 -0.00000000000E+00 -0.12949024387E+03  0.12949024387E+03  0.00000000000E+00 0. -1.
          6    1    1    2  501    0  0.14529282569E+03 -0.17729198297E+03  0.35069395887E+03  0.45327442594E+03  0.17300000000E+03 0. -1.
         -6    1    1    2    0  502 -0.14529282569E+03  0.17729198297E+03  0.18545549326E+03  0.34185551393E+03  0.17300000000E+03 0. -1.
<mgrwt>
<rscale>  2 0.28717843E+03</rscale>
<asrwt>0</asrwt>
<pdfrwt beam="1">  1       21 0.10240610E+00 0.28717843E+03</pdfrwt>
<pdfrwt beam="2">  1       21 0.19921576E-01 0.28717843E+03</pdfrwt>
<totfact> 0.17141300E+04</totfact>
</mgrwt>
</event>
<event>
 4    1  0.4441180E+000  0.2131499E+03  0.7546771E-02  0.1139096E+00
         21   -1    0    0  501  502  0.00000000000E+00  0.00000000000E+00  0.14079177076E+03  0.14079177076E+03  0.00000000000E+00 0. -1.
         21   -1    0    0  502  503 -0.00000000000E+00 -0.00000000000E+00 -0.51888753256E+03  0.51888753256E+03  0.00000000000E+00 0. -1.
          6    1    1    2  501    0  0.35377564570E+02 -0.11938302777E+03  0.13770289823E+02  0.21359424214E+03  0.17300000000E+03 0. -1.
         -6    1    1    2    0  503 -0.35377564570E+02  0.11938302777E+03 -0.39186605163E+03  0.44608506118E+03  0.17300000000E+03 0. -1.
<mgrwt>
<rscale>  2 0.21314990E+03</rscale>
<asrwt>0</asrwt>
<pdfrwt beam="1">  1       21 0.21660272E-01 0.21314990E+03</pdfrwt>
<pdfrwt beam="2">  1       21 0.79828852E-01 0.21314990E+03</pdfrwt>
<totfact> 0.27155903E+04</totfact>
</mgrwt>
</event>
<event>
 4    1  0.4441180E+000  0.2104113E+03  0.7546771E-02  0.1141241E+00
         21   -1    0    0  503  502  0.00000000000E+00  0.00000000000E+00  0.30811995641E+03  0.30811995641E+03  0.00000000000E+00 0. -1.
         21   -1    0    0  501  503 -0.00000000000E+00 -0.00000000000E+00 -0.18980937998E+03  0.18980937998E+03  0.00000000000E+00 0. -1.
          6    1    1    2  501    0  0.34634138756E+02 -0.11464890856E+03 -0.63569916676E+02  0.21980452704E+03  0.17300000000E+03 0. -1.
         -6    1    1    2    0  502 -0.34634138756E+02  0.11464890856E+03  0.18188049311E+03  0.27812480935E+03  0.17300000000E+03 0. -1.
<mgrwt>
<rscale>  2 0.21041125E+03</rscale>
<asrwt>0</asrwt>
<pdfrwt beam="1">  1       21 0.47403070E-01 0.21041125E+03</pdfrwt>
<pdfrwt beam="2">  1       21 0.29201443E-01 0.21041125E+03</pdfrwt>
<totfact> 0.47392710E+04</totfact>
</mgrwt>
</event>
<event>
 4    1  0.4441180E+000  0.1931704E+03  0.7546771E-02  0.1155633E+00
         21   -1    0    0  503  502  0.00000000000E+00  0.00000000000E+00  0.19002992580E+03  0.19002992580E+03  0.00000000000E+00 0. -1.
         21   -1    0    0  501  503 -0.00000000000E+00 -0.00000000000E+00 -0.19857802303E+03  0.19857802303E+03  0.00000000000E+00 0.  1.
          6    1    1    2  501    0  0.83958894122E+02  0.18349553694E+02 -0.24796444779E+02  0.19475539966E+03  0.17300000000E+03 0.  1.
         -6    1    1    2    0  502 -0.83958894122E+02 -0.18349553694E+02  0.16248347549E+02  0.19385254917E+03  0.17300000000E+03 0.  1.
<mgrwt>
<rscale>  2 0.19317040E+03</rscale>
<asrwt>0</asrwt>
<pdfrwt beam="1">  1       21 0.29235373E-01 0.19317040E+03</pdfrwt>
<pdfrwt beam="2">  1       21 0.30550465E-01 0.19317040E+03</pdfrwt>
<totfact> 0.11523084E+05</totfact>
</mgrwt>
</event>
<event>
 4    1  0.4441180E+000  0.3302721E+03  0.7546771E-02  0.1071017E+00
         21   -1    0    0  503  502  0.00000000000E+00  0.00000000000E+00  0.50180610523E+03  0.50180610523E+03  0.00000000000E+00 0. -1.
         21   -1    0    0  501  503 -0.00000000000E+00 -0.00000000000E+00 -0.43142596527E+03  0.43142596527E+03  0.00000000000E+00 0.  1.
          6    1    1    2  501    0 -0.18350184402E+03  0.21325505439E+03 -0.29348445126E+03  0.44182889009E+03  0.17300000000E+03 0.  1.
         -6    1    1    2    0  502  0.18350184402E+03 -0.21325505439E+03  0.36386459122E+03  0.49140318042E+03  0.17300000000E+03 0. -1.
<mgrwt>
<rscale>  2 0.33027208E+03</rscale>
<asrwt>0</asrwt>
<pdfrwt beam="1">  1       21 0.77200939E-01 0.33027208E+03</pdfrwt>
<pdfrwt beam="2">  1       21 0.66373225E-01 0.33027208E+03</pdfrwt>
<totfact> 0.28359230E+03</totfact>
</mgrwt>
</event>
<event>
 4    1  0.4441180E+000  0.2447455E+03  0.7546771E-02  0.1116671E+00
         21   -1    0    0  503  502  0.00000000000E+00  0.00000000000E+00  0.61216183670E+02  0.61216183670E+02  0.00000000000E+00 0.  1.
         21   -1    0    0  501  503 -0.00000000000E+00 -0.00000000000E+00 -0.98567471243E+03  0.98567471243E+03  0.00000000000E+00 0.  1.
          6    1    1    2  501    0  0.82508789217E+02  0.15219611242E+03 -0.41758681633E+03  0.48402386936E+03  0.17300000000E+03 0.  1.
         -6    1    1    2    0  502 -0.82508789217E+02 -0.15219611242E+03 -0.50687171243E+03  0.56286702674E+03  0.17300000000E+03 0.  1.
<mgrwt>
<rscale>  2 0.24474549E+03</rscale>
<asrwt>0</asrwt>
<pdfrwt beam="1">  1       21 0.94178744E-02 0.24474549E+03</pdfrwt>
<pdfrwt beam="2">  1       21 0.15164226E+00 0.24474549E+03</pdfrwt>
<totfact> 0.25396344E+04</totfact>
</mgrwt>
</event>
<event>
 4    1  0.4441180E+000  0.2202559E+03  0.7546771E-02  0.1133692E+00
         21   -1    0    0  503  502  0.00000000000E+00  0.00000000000E+00  0.10876909083E+03  0.10876909083E+03  0.00000000000E+00 0. -1.
         21   -1    0    0  501  503 -0.00000000000E+00 -0.00000000000E+00 -0.52842404911E+03  0.52842404911E+03  0.00000000000E+00 0. -1.
          6    1    1    2  501    0  0.12307005968E+03 -0.58629661168E+02 -0.33564366521E+03  0.40145902251E+03  0.17300000000E+03 0. -1.
         -6    1    1    2    0  502 -0.12307005968E+03  0.58629661168E+02 -0.84011293068E+02  0.23573411743E+03  0.17300000000E+03 0. -1.
<mgrwt>
<rscale>  2 0.22025593E+03</rscale>
<asrwt>0</asrwt>
<pdfrwt beam="1">  1       21 0.16733706E-01 0.22025593E+03</pdfrwt>
<pdfrwt beam="2">  1       21 0.81296008E-01 0.22025593E+03</pdfrwt>
<totfact> 0.42002509E+04</totfact>
</mgrwt>
</event>
<event>
 4    1  0.4441180E+000  0.2175998E+03  0.7546771E-02  0.1135685E+00
         21   -1    0    0  503  502  0.00000000000E+00  0.00000000000E+00  0.66018216707E+03  0.66018216707E+03  0.00000000000E+00 0. -1.
         21   -1    0    0  501  503 -0.00000000000E+00 -0.00000000000E+00 -0.26689516947E+03  0.26689516947E+03  0.00000000000E+00 0. -1.
          6    1    1    2  501    0 -0.46348554461E+02  0.12358186236E+03 -0.19974909800E+03  0.29538003886E+03  0.17300000000E+03 0. -1.
         -6    1    1    2    0  502  0.46348554461E+02 -0.12358186236E+03  0.59303609560E+03  0.63169729767E+03  0.17300000000E+03 0. -1.
<mgrwt>
<rscale>  2 0.21759978E+03</rscale>
<asrwt>0</asrwt>
<pdfrwt beam="1">  1       21 0.10156649E+00 0.21759978E+03</pdfrwt>
<pdfrwt beam="2">  1       21 0.41060795E-01 0.21759978E+03</pdfrwt>
<totfact> 0.44320391E+03</totfact>
</mgrwt>
</event>
<event>
 4    1  0.4441180E+000  0.3008723E+03  0.7546771E-02  0.1084805E+00
         21   -1    0    0  503  502  0.00000000000E+00  0.00000000000E+00  0.19039999420E+03  0.19039999420E+03  0.00000000000E+00 0.  1.
         21   -1    0    0  501  503 -0.00000000000E+00 -0.00000000000E+00 -0.63815843290E+03  0.63815843290E+03  0.00000000000E+00 0. -1.
          6    1    1    2  501    0  0.20066579723E+01  0.24615260110E+03 -0.43307107142E+03  0.52732787012E+03  0.17300000000E+03 0. -1.
         -6    1    1    2    0  502 -0.20066579723E+01 -0.24615260110E+03 -0.14687367284E+02  0.30123055699E+03  0.17300000000E+03 0.  1.
<mgrwt>
<rscale>  2 0.30087228E+03</rscale>
<asrwt>0</asrwt>
<pdfrwt beam="1">  1       21 0.29292307E-01 0.30087228E+03</pdfrwt>
<pdfrwt beam="2">  1       21 0.98178221E-01 0.30087228E+03</pdfrwt>
<totfact> 0.89849353E+03</totfact>
</mgrwt>
</event>
<event>
 4    1  0.4441180E+000  0.1930750E+03  0.7546771E-02  0.1155717E+00
         21   -1    0    0  501  502  0.00000000000E+00  0.00000000000E+00  0.33586663628E+03  0.33586663628E+03  0.00000000000E+00 0. -1.
         21   -1    0    0  502  503 -0.00000000000E+00 -0.00000000000E+00 -0.15448672651E+03  0.15448672651E+03  0.00000000000E+00 0.  1.
          6    1    1    2  501    0 -0.82976035308E+02  0.21539507903E+02  0.22078473132E+03  0.29329826188E+03  0.17300000000E+03 0. -1.
         -6    1    1    2    0  503  0.82976035308E+02 -0.21539507903E+02 -0.39404821543E+02  0.19705510092E+03  0.17300000000E+03 0.  1.
<mgrwt>
<rscale>  2 0.19307504E+03</rscale>
<asrwt>0</asrwt>
<pdfrwt beam="1">  1       21 0.51671790E-01 0.19307504E+03</pdfrwt>
<pdfrwt beam="2">  1       21 0.23767189E-01 0.19307504E+03</pdfrwt>
<totfact> 0.59320686E+04</totfact>
</mgrwt>
</event>
<event>
 4    1  0.4441180E+000  0.2624821E+03  0.7546771E-02  0.1105661E+00
         21   -1    0    0  501  502  0.00000000000E+00  0.00000000000E+00  0.16250108898E+03  0.16250108898E+03  0.00000000000E+00 0.  1.
         21   -1    0    0  502  503 -0.00000000000E+00 -0.00000000000E+00 -0.12211525792E+04  0.12211525792E+04  0.00000000000E+00 0.  1.
          6    1    1    2  501    0 -0.17346998253E+03  0.94212566023E+02  0.29645197687E+02  0.26415086633E+03  0.17300000000E+03 0.  1.
         -6    1    1    2    0  503  0.17346998253E+03 -0.94212566023E+02 -0.10882966879E+04  0.11195028019E+04  0.17300000000E+03 0.  1.
<mgrwt>
<rscale>  2 0.26248208E+03</rscale>
<asrwt>0</asrwt>
<pdfrwt beam="1">  1       21 0.25000166E-01 0.26248208E+03</pdfrwt>
<pdfrwt beam="2">  1       21 0.18786964E+00 0.26248208E+03</pdfrwt>
<totfact> 0.22968099E+03</totfact>
</mgrwt>
</event>
<event>
 4    1  0.4441180E+000  0.1963101E+03  0.7546771E-02  0.1152890E+00
         21   -1    0    0  503  502  0.00000000000E+00  0.00000000000E+00  0.68124745429E+03  0.68124745429E+03  0.00000000000E+00 0. -1.
         21   -1    0    0  501  503 -0.00000000000E+00 -0.00000000000E+00 -0.94437279838E+02  0.94437279838E+02  0.00000000000E+00 0. -1.
          6    1    1    2  501    0 -0.90985338330E+02  0.18175304793E+02  0.47809965994E+02  0.20204817827E+03  0.17300000000E+03 0. -1.
         -6    1    1    2    0  502  0.90985338330E+02 -0.18175304793E+02  0.53900020846E+03  0.57363655586E+03  0.17300000000E+03 0. -1.
<mgrwt>
<rscale>  2 0.19631015E+03</rscale>
<asrwt>0</asrwt>
<pdfrwt beam="1">  1       21 0.10480730E+00 0.19631015E+03</pdfrwt>
<pdfrwt beam="2">  1       21 0.14528813E-01 0.19631015E+03</pdfrwt>
<totfact> 0.30444020E+04</totfact>
</mgrwt>
</event>
<event>
 4    1  0.4441180E+000  0.3592398E+03  0.7546771E-02  0.1058885E+00
         21   -1    0    0  501  502  0.00000000000E+00  0.00000000000E+00  0.80215261733E+03  0.80215261733E+03  0.00000000000E+00 0.  1.
         21   -1    0    0  502  503 -0.00000000000E+00 -0.00000000000E+00 -0.16234205252E+03  0.16234205252E+03  0.00000000000E+00 0.  1.
          6    1    1    2  501    0  0.23468838844E+03  0.20987036992E+03  0.36561393538E+03  0.51256878718E+03  0.17300000000E+03 0.  1.
         -6    1    1    2    0  503 -0.23468838844E+03 -0.20987036992E+03  0.27419662943E+03  0.45192588268E+03  0.17300000000E+03 0.  1.
<mgrwt>
<rscale>  2 0.35923977E+03</rscale>
<asrwt>0</asrwt>
<pdfrwt beam="1">  1       21 0.12340809E+00 0.35923977E+03</pdfrwt>
<pdfrwt beam="2">  1       21 0.24975701E-01 0.35923977E+03</pdfrwt>
<totfact> 0.68020390E+03</totfact>
</mgrwt>
</event>
<event>
 4    1  0.4441180E+000  0.1808677E+03  0.7546771E-02  0.1166966E+00
         21   -1    0    0  501  502  0.00000000000E+00  0.00000000000E+00  0.46779108502E+03  0.46779108502E+03  0.00000000000E+00 0. -1.
         21   -1    0    0  502  503 -0.00000000000E+00 -0.00000000000E+00 -0.47080844848E+03  0.47080844848E+03  0.00000000000E+00 0.  1.
          6    1    1    2  501    0  0.50748245265E+02  0.14448227312E+02  0.43153727117E+03  0.46790763199E+03  0.17300000000E+03 0. -1.
         -6    1    1    2    0  503 -0.50748245265E+02 -0.14448227312E+02 -0.43455463463E+03  0.47069190151E+03  0.17300000000E+03 0.  1.
<mgrwt>
<rscale>  2 0.18086773E+03</rscale>
<asrwt>0</asrwt>
<pdfrwt beam="1">  1       21 0.71967859E-01 0.18086773E+03</pdfrwt>
<pdfrwt beam="2">  1       21 0.72432069E-01 0.18086773E+03</pdfrwt>
<totfact> 0.30249366E+03</totfact>
</mgrwt>
</event>
<event>
 4    1  0.4441180E+000  0.2483090E+03  0.7546771E-02  0.1114378E+00
         21   -1    0    0  501  502  0.00000000000E+00  0.00000000000E+00  0.36574534814E+03  0.36574534814E+03  0.00000000000E+00 0.  1.
         21   -1    0    0  502  503 -0.00000000000E+00 -0.00000000000E+00 -0.28132517924E+03  0.28132517924E+03  0.00000000000E+00 0.  1.
          6    1    1    2  501    0 -0.16634356108E+03  0.63703887782E+02  0.24702719444E+03  0.35025676357E+03  0.17300000000E+03 0.  1.
         -6    1    1    2    0  503  0.16634356108E+03 -0.63703887782E+02 -0.16260702554E+03  0.29681376381E+03  0.17300000000E+03 0.  1.
<mgrwt>
<rscale>  2 0.24830901E+03</rscale>
<asrwt>0</asrwt>
<pdfrwt beam="1">  1       21 0.56268515E-01 0.24830901E+03</pdfrwt>
<pdfrwt beam="2">  1       21 0.43280797E-01 0.24830901E+03</pdfrwt>
<totfact> 0.14767542E+04</totfact>
</mgrwt>
</event>
<event>
 4    1  0.4441180E+000  0.1874417E+03  0.7546771E-02  0.1160789E+00
         21   -1    0    0  503  502  0.00000000000E+00  0.00000000000E+00  0.27309092659E+03  0.27309092659E+03  0.00000000000E+00 0. -1.
         21   -1    0    0  501  503 -0.00000000000E+00 -0.00000000000E+00 -0.22663058689E+03  0.22663058689E+03  0.00000000000E+00 0. -1.
          6    1    1    2  501    0  0.27770118169E+02 -0.66589857893E+02 -0.14105514207E+03  0.23458674673E+03  0.17300000000E+03 0. -1.
         -6    1    1    2    0  502 -0.27770118169E+02  0.66589857893E+02  0.18751548177E+03  0.26513476675E+03  0.17300000000E+03 0. -1.
<mgrwt>
<rscale>  2 0.18744169E+03</rscale>
<asrwt>0</asrwt>
<pdfrwt beam="1">  1       21 0.42013989E-01 0.18744169E+03</pdfrwt>
<pdfrwt beam="2">  1       21 0.34866244E-01 0.18744169E+03</pdfrwt>
<totfact> 0.43345277E+04</totfact>
</mgrwt>
</event>
<event>
 4    1  0.4441180E+000  0.2004860E+03  0.7546771E-02  0.1149330E+00
         21   -1    0    0  503  502  0.00000000000E+00  0.00000000000E+00  0.14450105547E+04  0.14450105547E+04  0.00000000000E+00 0.  1.
         21   -1    0    0  501  503 -0.00000000000E+00 -0.00000000000E+00 -0.11903409726E+03  0.11903409726E+03  0.00000000000E+00 0. -1.
          6    1    1    2  501    0  0.65044534214E+02 -0.77684236688E+02 -0.21590822473E+02  0.20164522230E+03  0.17300000000E+03 0. -1.
         -6    1    1    2    0  502 -0.65044534214E+02  0.77684236688E+02  0.13475672799E+04  0.13623994297E+04  0.17300000000E+03 0.  1.
<mgrwt>
<rscale>  2 0.20048599E+03</rscale>
<asrwt>0</asrwt>
<pdfrwt beam="1">  1       21 0.22230930E+00 0.20048599E+03</pdfrwt>
<pdfrwt beam="2">  1       21 0.18312939E-01 0.20048599E+03</pdfrwt>
<totfact> 0.26265307E+03</totfact>
</mgrwt>
</event>
<event>
 4    1  0.4441180E+000  0.1738554E+03  0.7546771E-02  0.1173886E+00
         21   -1    0    0  503  502  0.00000000000E+00  0.00000000000E+00  0.63314013636E+03  0.63314013636E+03  0.00000000000E+00 0.  1.
         21   -1    0    0  501  503 -0.00000000000E+00 -0.00000000000E+00 -0.49286542846E+02  0.49286542846E+02  0.00000000000E+00 0.  1.
          6    1    1    2  501    0  0.15207101488E+02 -0.80888272763E+01  0.35238246719E+03  0.39293649391E+03  0.17300000000E+03 0.  1.
         -6    1    1    2    0  502 -0.15207101488E+02  0.80888272763E+01  0.23147112633E+03  0.28949018530E+03  0.17300000000E+03 0.  1.
<mgrwt>
<rscale>  2 0.17385536E+03</rscale>
<asrwt>0</asrwt>
<pdfrwt beam="1">  1       21 0.97406169E-01 0.17385536E+03</pdfrwt>
<pdfrwt beam="2">  1       21 0.75825455E-02 0.17385536E+03</pdfrwt>
<totfact> 0.11591415E+05</totfact>
</mgrwt>
</event>
<event>
 4    1  0.4441180E+000  0.2096037E+03  0.7546771E-02  0.1141880E+00
         21   -1    0    0  501  502  0.00000000000E+00  0.00000000000E+00  0.15819754908E+03  0.15819754908E+03  0.00000000000E+00 0. -1.
         21   -1    0    0  502  503 -0.00000000000E+00 -0.00000000000E+00 -0.47955083789E+03  0.47955083789E+03  0.00000000000E+00 0. -1.
          6    1    1    2  501    0  0.74795530538E+02 -0.91707905493E+02  0.46195497044E+02  0.21463395646E+03  0.17300000000E+03 0. -1.
         -6    1    1    2    0  503 -0.74795530538E+02  0.91707905493E+02 -0.36754878586E+03  0.42311443051E+03  0.17300000000E+03 0. -1.
<mgrwt>
<rscale>  2 0.20960370E+03</rscale>
<asrwt>0</asrwt>
<pdfrwt beam="1">  1       21 0.24338084E-01 0.20960370E+03</pdfrwt>
<pdfrwt beam="2">  1       21 0.73777052E-01 0.20960370E+03</pdfrwt>
<totfact> 0.26040060E+04</totfact>
</mgrwt>
</event>
<event>
 4    1  0.4441180E+000  0.2690357E+03  0.7546771E-02  0.1101833E+00
         21   -1    0    0  501  502  0.00000000000E+00  0.00000000000E+00  0.51548556825E+03  0.51548556825E+03  0.00000000000E+00 0.  1.
         21   -1    0    0  502  503 -0.00000000000E+00 -0.00000000000E+00 -0.31407875070E+03  0.31407875070E+03  0.00000000000E+00 0.  1.
          6    1    1    2  501    0  0.20518886891E+03  0.18674940270E+02  0.40913542725E+03  0.48966521538E+03  0.17300000000E+03 0.  1.
         -6    1    1    2    0  503 -0.20518886891E+03 -0.18674940270E+02 -0.20772860970E+03  0.33989910357E+03  0.17300000000E+03 0.  1.
<mgrwt>
<rscale>  2 0.26903573E+03</rscale>
<asrwt>0</asrwt>
<pdfrwt beam="1">  1       21 0.79305472E-01 0.26903573E+03</pdfrwt>
<pdfrwt beam="2">  1       21 0.48319808E-01 0.26903573E+03</pdfrwt>
<totfact> 0.54537810E+03</totfact>
</mgrwt>
</event>
<event>
 4    1  0.4441180E+000  0.2480669E+03  0.7546771E-02  0.1114533E+00
         21   -1    0    0  501  502  0.00000000000E+00  0.00000000000E+00  0.29662699633E+03  0.29662699633E+03  0.00000000000E+00 0. -1.
         21   -1    0    0  502  503 -0.00000000000E+00 -0.00000000000E+00 -0.21124735148E+03  0.21124735148E+03  0.00000000000E+00 0.  1.
          6    1    1    2  501    0  0.99064921754E+02 -0.14762908908E+03  0.86727099023E+01  0.24821849763E+03  0.17300000000E+03 0.  1.
         -6    1    1    2    0  503 -0.99064921754E+02  0.14762908908E+03  0.76706934952E+02  0.25965585019E+03  0.17300000000E+03 0. -1.
<mgrwt>
<rscale>  2 0.24806694E+03</rscale>
<asrwt>0</asrwt>
<pdfrwt beam="1">  1       21 0.45634923E-01 0.24806694E+03</pdfrwt>
<pdfrwt beam="2">  1       21 0.32499592E-01 0.24806694E+03</pdfrwt>
<totfact> 0.40872359E+04</totfact>
</mgrwt>
</event>
<event>
 4    1  0.4441180E+000  0.3574128E+03  0.7546771E-02  0.1059613E+00
         21   -1    0    0  503  502  0.00000000000E+00  0.00000000000E+00  0.52618877494E+03  0.52618877494E+03  0.00000000000E+00 0.  1.
         21   -1    0    0  501  503 -0.00000000000E+00 -0.00000000000E+00 -0.25087879984E+03  0.25087879984E+03  0.00000000000E+00 0. -1.
          6    1    1    2  501    0 -0.29797550957E+03 -0.95002572000E+02  0.67812136927E+02  0.36378892081E+03  0.17300000000E+03 0. -1.
         -6    1    1    2    0  502  0.29797550957E+03  0.95002572000E+02  0.20749783817E+03  0.41327865398E+03  0.17300000000E+03 0. -1.
<mgrwt>
<rscale>  2 0.35741278E+03</rscale>
<asrwt>0</asrwt>
<pdfrwt beam="1">  1       21 0.80952119E-01 0.35741278E+03</pdfrwt>
<pdfrwt beam="2">  1       21 0.38596739E-01 0.35741278E+03</pdfrwt>
<totfact> 0.79397309E+03</totfact>
</mgrwt>
</event>
<event>
 4    1  0.4441180E+000  0.1767952E+03  0.7546771E-02  0.1170941E+00
         21   -1    0    0  503  502  0.00000000000E+00  0.00000000000E+00  0.20697692197E+03  0.20697692197E+03  0.00000000000E+00 0.  1.
         21   -1    0    0  501  503 -0.00000000000E+00 -0.00000000000E+00 -0.19071589765E+03  0.19071589765E+03  0.00000000000E+00 0. -1.
          6    1    1    2  501    0 -0.33892864915E+02 -0.13371965082E+02  0.98855452728E+02  0.20255600775E+03  0.17300000000E+03 0.  1.
         -6    1    1    2    0  502  0.33892864915E+02  0.13371965082E+02 -0.82594428409E+02  0.19513681187E+03  0.17300000000E+03 0. -1.
<mgrwt>
<rscale>  2 0.17679518E+03</rscale>
<asrwt>0</asrwt>
<pdfrwt beam="1">  1       21 0.31842604E-01 0.17679518E+03</pdfrwt>
<pdfrwt beam="2">  1       21 0.29340907E-01 0.17679518E+03</pdfrwt>
<totfact> 0.10614530E+05</totfact>
</mgrwt>
</event>
<event>
 4    1  0.4441180E+000  0.3279604E+03  0.7546771E-02  0.1072043E+00
         21   -1    0    0  501  502  0.00000000000E+00  0.00000000000E+00  0.36570494224E+03  0.36570494224E+03  0.00000000000E+00 0.  1.
         21   -1    0    0  502  503 -0.00000000000E+00 -0.00000000000E+00 -0.92527410791E+03  0.92527410791E+03  0.00000000000E+00 0. -1.
          6    1    1    2  501    0 -0.27786591708E+03  0.20483108821E+02  0.25333499141E+03  0.41441120097E+03  0.17300000000E+03 0.  1.
         -6    1    1    2    0  503  0.27786591708E+03 -0.20483108821E+02 -0.81290415708E+03  0.87656784918E+03  0.17300000000E+03 0. -1.
<mgrwt>
<rscale>  2 0.32796040E+03</rscale>
<asrwt>0</asrwt>
<pdfrwt beam="1">  1       21 0.56262300E-01 0.32796040E+03</pdfrwt>
<pdfrwt beam="2">  1       21 0.14234986E+00 0.32796040E+03</pdfrwt>
<totfact> 0.91450719E+02</totfact>
</mgrwt>
</event>
<event>
 4    1  0.4441180E+000  0.1847744E+03  0.7546771E-02  0.1163261E+00
         21   -1    0    0  503  502  0.00000000000E+00  0.00000000000E+00  0.15954033285E+03  0.15954033285E+03  0.00000000000E+00 0.  1.
         21   -1    0    0  501  503 -0.00000000000E+00 -0.00000000000E+00 -0.10355530958E+04  0.10355530958E+04  0.00000000000E+00 0.  1.
          6    1    1    2  501    0 -0.31782616599E+02  0.56590263199E+02 -0.97024153929E+03  0.98767921775E+03  0.17300000000E+03 0.  1.
         -6    1    1    2    0  502  0.31782616599E+02 -0.56590263199E+02  0.94228776315E+02  0.20741421092E+03  0.17300000000E+03 0.  1.
<mgrwt>
<rscale>  2 0.18477444E+03</rscale>
<asrwt>0</asrwt>
<pdfrwt beam="1">  1       21 0.24544667E-01 0.18477444E+03</pdfrwt>
<pdfrwt beam="2">  1       21 0.15931586E+00 0.18477444E+03</pdfrwt>
<totfact> 0.40225195E+03</totfact>
</mgrwt>
</event>
<event>
 4    1  0.4441180E+000  0.1832500E+03  0.7546771E-02  0.1164694E+00
         21   -1    0    0  501  502  0.00000000000E+00  0.00000000000E+00  0.36012522261E+03  0.36012522261E+03  0.00000000000E+00 0.  1.
         21   -1    0    0  502  503 -0.00000000000E+00 -0.00000000000E+00 -0.11702293574E+03  0.11702293574E+03  0.00000000000E+00 0.  1.
          6    1    1    2  501    0  0.29108743014E+02 -0.52955119317E+02  0.22908801776E+03  0.29336305743E+03  0.17300000000E+03 0.  1.
         -6    1    1    2    0  503 -0.29108743014E+02  0.52955119317E+02  0.14014269112E+02  0.18378510092E+03  0.17300000000E+03 0.  1.
<mgrwt>
<rscale>  2 0.18325000E+03</rscale>
<asrwt>0</asrwt>
<pdfrwt beam="1">  1       21 0.55403880E-01 0.18325000E+03</pdfrwt>
<pdfrwt beam="2">  1       21 0.18003529E-01 0.18325000E+03</pdfrwt>
<totfact> 0.86519350E+04</totfact>
</mgrwt>
</event>
<event>
 4    1  0.4441180E+000  0.2108945E+03  0.7546771E-02  0.1140860E+00
         21   -1    0    0  503  502  0.00000000000E+00  0.00000000000E+00  0.98105807818E+02  0.98105807818E+02  0.00000000000E+00 0. -1.
         21   -1    0    0  501  503 -0.00000000000E+00 -0.00000000000E+00 -0.51305045334E+03  0.51305045334E+03  0.00000000000E+00 0. -1.
          6    1    1    2  501    0 -0.11191924851E+03  0.44961681323E+02 -0.31170971072E+03  0.37635012253E+03  0.17300000000E+03 0. -1.
         -6    1    1    2    0  502  0.11191924851E+03 -0.44961681323E+02 -0.10323493480E+03  0.23480613863E+03  0.17300000000E+03 0. -1.
<mgrwt>
<rscale>  2 0.21089445E+03</rscale>
<asrwt>0</asrwt>
<pdfrwt beam="1">  1       21 0.15093201E-01 0.21089445E+03</pdfrwt>
<pdfrwt beam="2">  1       21 0.78930839E-01 0.21089445E+03</pdfrwt>
<totfact> 0.54509753E+04</totfact>
</mgrwt>
</event>
<event>
 4    1  0.4441180E+000  0.2084092E+03  0.7546771E-02  0.1142832E+00
         21   -1    0    0  503  502  0.00000000000E+00  0.00000000000E+00  0.40068155927E+02  0.40068155927E+02  0.00000000000E+00 0.  1.
         21   -1    0    0  501  503 -0.00000000000E+00 -0.00000000000E+00 -0.15657133697E+04  0.15657133697E+04  0.00000000000E+00 0.  1.
          6    1    1    2  501    0 -0.17315395926E+01  0.11619978406E+03 -0.12081598100E+04  0.12260034724E+04  0.17300000000E+03 0. -1.
         -6    1    1    2    0  502  0.17315395926E+01 -0.11619978406E+03 -0.31748540383E+03  0.37977805319E+03  0.17300000000E+03 0. -1.
<mgrwt>
<rscale>  2 0.20840918E+03</rscale>
<asrwt>0</asrwt>
<pdfrwt beam="1">  1       21 0.61643307E-02 0.20840918E+03</pdfrwt>
<pdfrwt beam="2">  1       21 0.24087902E+00 0.20840918E+03</pdfrwt>
<totfact> 0.13977890E+04</totfact>
</mgrwt>
</event>
<event>
 4    1  0.4441180E+000  0.2331128E+03  0.7546771E-02  0.1124468E+00
         21   -1    0    0  503  502  0.00000000000E+00  0.00000000000E+00  0.36797098789E+03  0.36797098789E+03  0.00000000000E+00 0.  1.
         21   -1    0    0  501  503 -0.00000000000E+00 -0.00000000000E+00 -0.29047373288E+03  0.29047373288E+03  0.00000000000E+00 0.  1.
          6    1    1    2  501    0  0.15155565732E+03 -0.37992675401E+02 -0.19208129011E+03  0.30205427106E+03  0.17300000000E+03 0.  1.
         -6    1    1    2    0  502 -0.15155565732E+03  0.37992675401E+02  0.26957854513E+03  0.35639044971E+03  0.17300000000E+03 0.  1.
<mgrwt>
<rscale>  2 0.23311276E+03</rscale>
<asrwt>0</asrwt>
<pdfrwt beam="1">  1       21 0.56610921E-01 0.23311276E+03</pdfrwt>
<pdfrwt beam="2">  1       21 0.44688267E-01 0.23311276E+03</pdfrwt>
<totfact> 0.13758808E+04</totfact>
</mgrwt>
</event>
<event>
 4    1  0.4441180E+000  0.2731707E+03  0.7546771E-02  0.1099479E+00
         21   -1    0    0  503  502  0.00000000000E+00  0.00000000000E+00  0.87538545815E+03  0.87538545815E+03  0.00000000000E+00 0. -1.
         21   -1    0    0  501  503 -0.00000000000E+00 -0.00000000000E+00 -0.94649701811E+02  0.94649701811E+02  0.00000000000E+00 0. -1.
          6    1    1    2  501    0  0.14439201397E+03  0.15441563896E+03  0.23748103619E+03  0.36196613903E+03  0.17300000000E+03 0. -1.
         -6    1    1    2    0  502 -0.14439201397E+03 -0.15441563896E+03  0.54325472015E+03  0.60806902093E+03  0.17300000000E+03 0. -1.
<mgrwt>
<rscale>  2 0.27317072E+03</rscale>
<asrwt>0</asrwt>
<pdfrwt beam="1">  1       21 0.13467468E+00 0.27317072E+03</pdfrwt>
<pdfrwt beam="2">  1       21 0.14561493E-01 0.27317072E+03</pdfrwt>
<totfact> 0.15605053E+04</totfact>
</mgrwt>
</event>
<event>
 4    1  0.4441180E+000  0.1744942E+03  0.7546771E-02  0.1173241E+00
         21   -1    0    0  501  502  0.00000000000E+00  0.00000000000E+00  0.23703426862E+03  0.23703426862E+03  0.00000000000E+00 0.  1.
         21   -1    0    0  502  503 -0.00000000000E+00 -0.00000000000E+00 -0.15449577716E+03  0.15449577716E+03  0.00000000000E+00 0.  1.
          6    1    1    2  501    0  0.22587692236E+02 -0.30015576945E+01  0.12164121328E+03  0.21270824610E+03  0.17300000000E+03 0.  1.
         -6    1    1    2    0  503 -0.22587692236E+02  0.30015576945E+01 -0.39102721813E+02  0.17882179968E+03  0.17300000000E+03 0.  1.
<mgrwt>
<rscale>  2 0.17449416E+03</rscale>
<asrwt>0</asrwt>
<pdfrwt beam="1">  1       21 0.36466811E-01 0.17449416E+03</pdfrwt>
<pdfrwt beam="2">  1       21 0.23768581E-01 0.17449416E+03</pdfrwt>
<totfact> 0.12171316E+05</totfact>
</mgrwt>
</event>
<event>
 4    1  0.4441180E+000  0.2724024E+03  0.7546771E-02  0.1099912E+00
         21   -1    0    0  501  502  0.00000000000E+00  0.00000000000E+00  0.59380161642E+03  0.59380161642E+03  0.00000000000E+00 0.  1.
         21   -1    0    0  502  503 -0.00000000000E+00 -0.00000000000E+00 -0.14831131245E+03  0.14831131245E+03  0.00000000000E+00 0. -1.
          6    1    1    2  501    0 -0.21037582512E+03  0.40081107261E+01  0.36997077791E+03  0.45943599037E+03  0.17300000000E+03 0.  1.
         -6    1    1    2    0  503  0.21037582512E+03 -0.40081107261E+01  0.75519526061E+02  0.28267693850E+03  0.17300000000E+03 0. -1.
<mgrwt>
<rscale>  2 0.27240237E+03</rscale>
<asrwt>0</asrwt>
<pdfrwt beam="1">  1       21 0.91354094E-01 0.27240237E+03</pdfrwt>
<pdfrwt beam="2">  1       21 0.22817125E-01 0.27240237E+03</pdfrwt>
<totfact> 0.17505875E+04</totfact>
</mgrwt>
</event>
<event>
 4    1  0.4441180E+000  0.2538156E+03  0.7546771E-02  0.1110917E+00
         21   -1    0    0  501  502  0.00000000000E+00  0.00000000000E+00  0.39726783013E+03  0.39726783013E+03  0.00000000000E+00 0.  1.
         21   -1    0    0  502  503 -0.00000000000E+00 -0.00000000000E+00 -0.24738558012E+03  0.24738558012E+03  0.00000000000E+00 0.  1.
          6    1    1    2  501    0 -0.83031842991E+02  0.16612963887E+03  0.26412545003E+03  0.36631215816E+03  0.17300000000E+03 0.  1.
         -6    1    1    2    0  503  0.83031842991E+02 -0.16612963887E+03 -0.11424320002E+03  0.27834125209E+03  0.17300000000E+03 0.  1.
<mgrwt>
<rscale>  2 0.25381557E+03</rscale>
<asrwt>0</asrwt>
<pdfrwt beam="1">  1       21 0.61118128E-01 0.25381557E+03</pdfrwt>
<pdfrwt beam="2">  1       21 0.38059320E-01 0.25381557E+03</pdfrwt>
<totfact> 0.16015795E+04</totfact>
</mgrwt>
</event>
<event>
 4    1  0.4441180E+000  0.2193645E+03  0.7546771E-02  0.1134358E+00
         21   -1    0    0  501  502  0.00000000000E+00  0.00000000000E+00  0.13544728552E+03  0.13544728552E+03  0.00000000000E+00 0.  1.
         21   -1    0    0  502  503 -0.00000000000E+00 -0.00000000000E+00 -0.35796284005E+03  0.35796284005E+03  0.00000000000E+00 0. -1.
          6    1    1    2  501    0  0.24553647069E+02  0.13262312018E+03 -0.13264312344E+03  0.25634931595E+03  0.17300000000E+03 0. -1.
         -6    1    1    2    0  503 -0.24553647069E+02 -0.13262312018E+03 -0.89872431083E+02  0.23706080962E+03  0.17300000000E+03 0.  1.
<mgrwt>
<rscale>  2 0.21936448E+03</rscale>
<asrwt>0</asrwt>
<pdfrwt beam="1">  1       21 0.20838044E-01 0.21936448E+03</pdfrwt>
<pdfrwt beam="2">  1       21 0.55071207E-01 0.21936448E+03</pdfrwt>
<totfact> 0.65708876E+04</totfact>
</mgrwt>
</event>
<event>
 4    1  0.4441180E+000  0.1857484E+03  0.7546771E-02  0.1162353E+00
         21   -1    0    0  503  502  0.00000000000E+00  0.00000000000E+00  0.42594462556E+02  0.42594462556E+02  0.00000000000E+00 0.  1.
         21   -1    0    0  501  503 -0.00000000000E+00 -0.00000000000E+00 -0.11946092491E+04  0.11946092491E+04  0.00000000000E+00 0.  1.
          6    1    1    2  501    0 -0.63941568664E+02 -0.22021158180E+02 -0.92699814346E+03  0.94542477945E+03  0.17300000000E+03 0.  1.
         -6    1    1    2    0  502  0.63941568664E+02  0.22021158180E+02 -0.22501664304E+03  0.29177893216E+03  0.17300000000E+03 0.  1.
<mgrwt>
<rscale>  2 0.18574837E+03</rscale>
<asrwt>0</asrwt>
<pdfrwt beam="1">  1       21 0.65529937E-02 0.18574837E+03</pdfrwt>
<pdfrwt beam="2">  1       21 0.18378605E+00 0.18574837E+03</pdfrwt>
<totfact> 0.29212837E+04</totfact>
</mgrwt>
</event>
<event>
 4    1  0.4441180E+000  0.2007300E+03  0.7546771E-02  0.1149125E+00
         21   -1    0    0  503  502  0.00000000000E+00  0.00000000000E+00  0.27271270330E+03  0.27271270330E+03  0.00000000000E+00 0.  1.
         21   -1    0    0  501  503 -0.00000000000E+00 -0.00000000000E+00 -0.20848676391E+03  0.20848676391E+03  0.00000000000E+00 0.  1.
          6    1    1    2  501    0 -0.46348969403E+02 -0.90638426868E+02 -0.97751863301E+02  0.22326660782E+03  0.17300000000E+03 0.  1.
         -6    1    1    2    0  502  0.46348969403E+02  0.90638426868E+02  0.16197780269E+03  0.25793285939E+03  0.17300000000E+03 0.  1.
<mgrwt>
<rscale>  2 0.20073005E+03</rscale>
<asrwt>0</asrwt>
<pdfrwt beam="1">  1       21 0.41955801E-01 0.20073005E+03</pdfrwt>
<pdfrwt beam="2">  1       21 0.32074887E-01 0.20073005E+03</pdfrwt>
<totfact> 0.50920937E+04</totfact>
</mgrwt>
</event>
<event>
 4    1  0.4441180E+000  0.2369556E+03  0.7546771E-02  0.1121838E+00
         21   -1    0    0  501  502  0.00000000000E+00  0.00000000000E+00  0.11993811092E+04  0.11993811092E+04  0.00000000000E+00 0. -1.
         21   -1    0    0  502  503 -0.00000000000E+00 -0.00000000000E+00 -0.50138801959E+02  0.50138801959E+02  0.00000000000E+00 0. -1.
          6    1    1    2  501    0 -0.56175577330E+02 -0.15186594905E+03  0.73550104478E+03  0.77272876797E+03  0.17300000000E+03 0. -1.
         -6    1    1    2    0  503  0.56175577330E+02  0.15186594905E+03  0.41374126250E+03  0.47679114324E+03  0.17300000000E+03 0. -1.
<mgrwt>
<rscale>  2 0.23695561E+03</rscale>
<asrwt>0</asrwt>
<pdfrwt beam="1">  1       21 0.18452015E+00 0.23695561E+03</pdfrwt>
<pdfrwt beam="2">  1       21 0.77136627E-02 0.23695561E+03</pdfrwt>
<totfact> 0.21045475E+04</totfact>
</mgrwt>
</event>
<event>
 4    1  0.4441180E+000  0.3128029E+03  0.7546771E-02  0.1079010E+00
         21   -1    0    0  503  502  0.00000000000E+00  0.00000000000E+00  0.23984932323E+03  0.23984932323E+03  0.00000000000E+00 0.  1.
         21   -1    0    0  501  503 -0.00000000000E+00 -0.00000000000E+00 -0.42224509975E+03  0.42224509975E+03  0.00000000000E+00 0.  1.
          6    1    1    2  501    0  0.17839934246E+03  0.18997453974E+03 -0.15211747700E+03  0.34782952426E+03  0.17300000000E+03 0.  1.
         -6    1    1    2    0  502 -0.17839934246E+03 -0.18997453974E+03 -0.30278299523E+02  0.31426489871E+03  0.17300000000E+03 0.  1.
<mgrwt>
<rscale>  2 0.31280290E+03</rscale>
<asrwt>0</asrwt>
<pdfrwt beam="1">  1       21 0.36899896E-01 0.31280290E+03</pdfrwt>
<pdfrwt beam="2">  1       21 0.64960784E-01 0.31280290E+03</pdfrwt>
<totfact> 0.14532851E+04</totfact>
</mgrwt>
</event>
<event>
 4    1  0.4441180E+000  0.2381803E+03  0.7546771E-02  0.1121011E+00
         21   -1    0    0  501  502  0.00000000000E+00  0.00000000000E+00  0.51426301543E+03  0.51426301543E+03  0.00000000000E+00 0.  1.
         21   -1    0    0  502  503 -0.00000000000E+00 -0.00000000000E+00 -0.12599512204E+03  0.12599512204E+03  0.00000000000E+00 0. -1.
          6    1    1    2  501    0 -0.16216611861E+03  0.22428298136E+02  0.30707481691E+03  0.38861912171E+03  0.17300000000E+03 0.  1.
         -6    1    1    2    0  503  0.16216611861E+03 -0.22428298136E+02  0.81193076491E+02  0.25163901576E+03  0.17300000000E+03 0. -1.
<mgrwt>
<rscale>  2 0.23818035E+03</rscale>
<asrwt>0</asrwt>
<pdfrwt beam="1">  1       21 0.79117386E-01 0.23818035E+03</pdfrwt>
<pdfrwt beam="2">  1       21 0.19383865E-01 0.23818035E+03</pdfrwt>
<totfact> 0.33717760E+04</totfact>
</mgrwt>
</event>
<event>
 4    1  0.4441180E+000  0.1916798E+03  0.7546771E-02  0.1156955E+00
         21   -1    0    0  501  502  0.00000000000E+00  0.00000000000E+00  0.27287837065E+03  0.27287837065E+03  0.00000000000E+00 0. -1.
         21   -1    0    0  502  503 -0.00000000000E+00 -0.00000000000E+00 -0.29598985882E+03  0.29598985882E+03  0.00000000000E+00 0. -1.
          6    1    1    2  501    0  0.26702457881E+02 -0.78096877585E+02  0.19844634684E+03  0.27590233076E+03  0.17300000000E+03 0. -1.
         -6    1    1    2    0  503 -0.26702457881E+02  0.78096877585E+02 -0.22155783501E+03  0.29296589870E+03  0.17300000000E+03 0. -1.
<mgrwt>
<rscale>  2 0.19167979E+03</rscale>
<asrwt>0</asrwt>
<pdfrwt beam="1">  1       21 0.41981288E-01 0.19167979E+03</pdfrwt>
<pdfrwt beam="2">  1       21 0.45536901E-01 0.19167979E+03</pdfrwt>
<totfact> 0.25270364E+04</totfact>
</mgrwt>
</event>
<event>
 4    1  0.4441180E+000  0.2000077E+03  0.7546771E-02  0.1149733E+00
         21   -1    0    0  501  502  0.00000000000E+00  0.00000000000E+00  0.46543377601E+02  0.46543377601E+02  0.00000000000E+00 0. -1.
         21   -1    0    0  502  503 -0.00000000000E+00 -0.00000000000E+00 -0.92336092259E+03  0.92336092259E+03  0.00000000000E+00 0.  1.
          6    1    1    2  501    0 -0.76030723455E+02 -0.65524089123E+02 -0.31085286978E+03  0.36963845013E+03  0.17300000000E+03 0. -1.
         -6    1    1    2    0  503  0.76030723455E+02  0.65524089123E+02 -0.56596467521E+03  0.60026585007E+03  0.17300000000E+03 0.  1.
<mgrwt>
<rscale>  2 0.20000769E+03</rscale>
<asrwt>0</asrwt>
<pdfrwt beam="1">  1       21 0.71605201E-02 0.20000769E+03</pdfrwt>
<pdfrwt beam="2">  1       21 0.14205552E+00 0.20000769E+03</pdfrwt>
<totfact> 0.49914074E+04</totfact>
</mgrwt>
</event>
<event>
 4    1  0.4441180E+000  0.2114139E+03  0.7546771E-02  0.1140451E+00
         21   -1    0    0  501  502  0.00000000000E+00  0.00000000000E+00  0.26549920893E+03  0.26549920893E+03  0.00000000000E+00 0. -1.
         21   -1    0    0  502  503 -0.00000000000E+00 -0.00000000000E+00 -0.35240267230E+03  0.35240267230E+03  0.00000000000E+00 0.  1.
          6    1    1    2  501    0  0.63468791283E+01  0.12135304302E+03  0.17982589189E+03  0.27754854588E+03  0.17300000000E+03 0. -1.
         -6    1    1    2    0  503 -0.63468791283E+01 -0.12135304302E+03 -0.26672935526E+03  0.34035333535E+03  0.17300000000E+03 0.  1.
<mgrwt>
<rscale>  2 0.21141392E+03</rscale>
<asrwt>0</asrwt>
<pdfrwt beam="1">  1       21 0.40846032E-01 0.21141392E+03</pdfrwt>
<pdfrwt beam="2">  1       21 0.54215795E-01 0.21141392E+03</pdfrwt>
<totfact> 0.18355257E+04</totfact>
</mgrwt>
</event>
<event>
 4    1  0.4441180E+000  0.3323458E+03  0.7546771E-02  0.1070104E+00
         21   -1    0    0  501  502  0.00000000000E+00  0.00000000000E+00  0.48905918597E+03  0.48905918597E+03  0.00000000000E+00 0. -1.
         21   -1    0    0  502  503 -0.00000000000E+00 -0.00000000000E+00 -0.23046446880E+03  0.23046446880E+03  0.00000000000E+00 0.  1.
          6    1    1    2  501    0  0.27518324312E+03  0.69274065333E+02  0.18020736728E+03  0.37805873703E+03  0.17300000000E+03 0. -1.
         -6    1    1    2    0  503 -0.27518324312E+03 -0.69274065333E+02  0.78387349895E+02  0.34146491774E+03  0.17300000000E+03 0.  1.
<mgrwt>
<rscale>  2 0.33234577E+03</rscale>
<asrwt>0</asrwt>
<pdfrwt beam="1">  1       21 0.75239875E-01 0.33234577E+03</pdfrwt>
<pdfrwt beam="2">  1       21 0.35456072E-01 0.33234577E+03</pdfrwt>
<totfact> 0.11255800E+04</totfact>
</mgrwt>
</event>
<event>
 4    1  0.4441180E+000  0.2821660E+03  0.7546771E-02  0.1094512E+00
         21   -1    0    0  503  502  0.00000000000E+00  0.00000000000E+00  0.26849905477E+03  0.26849905477E+03  0.00000000000E+00 0. -1.
         21   -1    0    0  501  503 -0.00000000000E+00 -0.00000000000E+00 -0.37326134725E+03  0.37326134725E+03  0.00000000000E+00 0.  1.
          6    1    1    2  501    0 -0.10282093552E+02  0.22267228649E+03 -0.19786894613E+03  0.34462992972E+03  0.17300000000E+03 0.  1.
         -6    1    1    2    0  502  0.10282093552E+02 -0.22267228649E+03  0.93106653642E+02  0.29713047230E+03  0.17300000000E+03 0. -1.
<mgrwt>
<rscale>  2 0.28216603E+03</rscale>
<asrwt>0</asrwt>
<pdfrwt beam="1">  1       21 0.41307547E-01 0.28216603E+03</pdfrwt>
<pdfrwt beam="2">  1       21 0.57424822E-01 0.28216603E+03</pdfrwt>
<totfact> 0.15307219E+04</totfact>
</mgrwt>
</event>
<event>
 4    1  0.4441180E+000  0.2139597E+03  0.7546771E-02  0.1138468E+00
         21   -1    0    0  501  502  0.00000000000E+00  0.00000000000E+00  0.12591908482E+03  0.12591908482E+03  0.00000000000E+00 0.  1.
         21   -1    0    0  502  503 -0.00000000000E+00 -0.00000000000E+00 -0.37269183275E+03  0.37269183275E+03  0.00000000000E+00 0.  1.
          6    1    1    2  501    0 -0.84534066232E+00 -0.12589292514E+03 -0.16241751188E+03  0.26862276777E+03  0.17300000000E+03 0.  1.
         -6    1    1    2    0  503  0.84534066232E+00  0.12589292514E+03 -0.84355236051E+02  0.22998814980E+03  0.17300000000E+03 0.  1.
<mgrwt>
<rscale>  2 0.21395968E+03</rscale>
<asrwt>0</asrwt>
<pdfrwt beam="1">  1       21 0.19372167E-01 0.21395968E+03</pdfrwt>
<pdfrwt beam="2">  1       21 0.57337204E-01 0.21395968E+03</pdfrwt>
<totfact> 0.69294330E+04</totfact>
</mgrwt>
</event>
<event>
 4    1  0.4441180E+000  0.2103664E+03  0.7546771E-02  0.1141276E+00
         21   -1    0    0  503  502  0.00000000000E+00  0.00000000000E+00  0.28532335139E+03  0.28532335139E+03  0.00000000000E+00 0.  1.
         21   -1    0    0  501  503 -0.00000000000E+00 -0.00000000000E+00 -0.52660289098E+03  0.52660289098E+03  0.00000000000E+00 0.  1.
          6    1    1    2  501    0  0.97905074292E+02 -0.68844851714E+02 -0.46161694903E+03  0.50729106518E+03  0.17300000000E+03 0.  1.
         -6    1    1    2    0  502 -0.97905074292E+02  0.68844851714E+02  0.22033740945E+03  0.30463517719E+03  0.17300000000E+03 0.  1.
<mgrwt>
<rscale>  2 0.21036639E+03</rscale>
<asrwt>0</asrwt>
<pdfrwt beam="1">  1       21 0.43895900E-01 0.21036639E+03</pdfrwt>
<pdfrwt beam="2">  1       21 0.81015829E-01 0.21036639E+03</pdfrwt>
<totfact> 0.65784233E+03</totfact>
</mgrwt>
</event>
<event>
 4    1  0.4441180E+000  0.3305188E+03  0.7546771E-02  0.1070908E+00
         21   -1    0    0  501  502  0.00000000000E+00  0.00000000000E+00  0.10400325309E+04  0.10400325309E+04  0.00000000000E+00 0. -1.
         21   -1    0    0  502  503 -0.00000000000E+00 -0.00000000000E+00 -0.10778297785E+03  0.10778297785E+03  0.00000000000E+00 0.  1.
          6    1    1    2  501    0  0.85776908341E+02 -0.26824617779E+03  0.55771628641E+03  0.64829788372E+03  0.17300000000E+03 0. -1.
         -6    1    1    2    0  503 -0.85776908341E+02  0.26824617779E+03  0.37453326665E+03  0.49951762505E+03  0.17300000000E+03 0.  1.
<mgrwt>
<rscale>  2 0.33051882E+03</rscale>
<asrwt>0</asrwt>
<pdfrwt beam="1">  1       21 0.16000500E+00 0.33051882E+03</pdfrwt>
<pdfrwt beam="2">  1       21 0.16581997E-01 0.33051882E+03</pdfrwt>
<totfact> 0.75461658E+03</totfact>
</mgrwt>
</event>
<event>
 4    1  0.4441180E+000  0.2088172E+03  0.7546771E-02  0.1142506E+00
         21   -1    0    0  501  502  0.00000000000E+00  0.00000000000E+00  0.28068208403E+03  0.28068208403E+03  0.00000000000E+00 0. -1.
         21   -1    0    0  502  503 -0.00000000000E+00 -0.00000000000E+00 -0.25814885114E+03  0.25814885114E+03  0.00000000000E+00 0.  1.
          6    1    1    2  501    0 -0.98828799617E+02  0.62517995584E+02  0.18127741927E+03  0.27652510581E+03  0.17300000000E+03 0. -1.
         -6    1    1    2    0  503  0.98828799617E+02 -0.62517995584E+02 -0.15874418639E+03  0.26230582936E+03  0.17300000000E+03 0.  1.
<mgrwt>
<rscale>  2 0.20881722E+03</rscale>
<asrwt>0</asrwt>
<pdfrwt beam="1">  1       21 0.43181859E-01 0.20881722E+03</pdfrwt>
<pdfrwt beam="2">  1       21 0.39715208E-01 0.20881722E+03</pdfrwt>
<totfact> 0.31235872E+04</totfact>
</mgrwt>
</event>
<event>
 4    1  0.4441180E+000  0.2021668E+03  0.7546771E-02  0.1147924E+00
         21   -1    0    0  501  502  0.00000000000E+00  0.00000000000E+00  0.63891959866E+02  0.63891959866E+02  0.00000000000E+00 0. -1.
         21   -1    0    0  502  503 -0.00000000000E+00 -0.00000000000E+00 -0.65036590626E+03  0.65036590626E+03  0.00000000000E+00 0. -1.
          6    1    1    2  501    0 -0.17227873305E+02  0.10317756278E+03 -0.24749304168E+03  0.31956879503E+03  0.17300000000E+03 0. -1.
         -6    1    1    2    0  503  0.17227873305E+02 -0.10317756278E+03 -0.33898090472E+03  0.39468907110E+03  0.17300000000E+03 0. -1.
<mgrwt>
<rscale>  2 0.20216679E+03</rscale>
<asrwt>0</asrwt>
<pdfrwt beam="1">  1       21 0.98295313E-02 0.20216679E+03</pdfrwt>
<pdfrwt beam="2">  1       21 0.10005630E+00 0.20216679E+03</pdfrwt>
<totfact> 0.68268421E+04</totfact>
</mgrwt>
</event>
<event>
 4    1  0.4441180E+000  0.2143261E+03  0.7546771E-02  0.1138185E+00
         21   -1    0    0  501  502  0.00000000000E+00  0.00000000000E+00  0.15437528582E+03  0.15437528582E+03  0.00000000000E+00 0. -1.
         21   -1    0    0  502  503 -0.00000000000E+00 -0.00000000000E+00 -0.30219042638E+03  0.30219042638E+03  0.00000000000E+00 0.  1.
          6    1    1    2  501    0  0.81979404838E+02 -0.96364087880E+02 -0.45644501968E+02  0.21913256447E+03  0.17300000000E+03 0. -1.
         -6    1    1    2    0  503 -0.81979404838E+02  0.96364087880E+02 -0.10217063859E+03  0.23743314773E+03  0.17300000000E+03 0.  1.
<mgrwt>
<rscale>  2 0.21432606E+03</rscale>
<asrwt>0</asrwt>
<pdfrwt beam="1">  1       21 0.23750044E-01 0.21432606E+03</pdfrwt>
<pdfrwt beam="2">  1       21 0.46490834E-01 0.21432606E+03</pdfrwt>
<totfact> 0.73310437E+04</totfact>
</mgrwt>
</event>
<event>
 4    1  0.4441180E+000  0.2457097E+03  0.7546771E-02  0.1116047E+00
         21   -1    0    0  501  502  0.00000000000E+00  0.00000000000E+00  0.42022604648E+03  0.42022604648E+03  0.00000000000E+00 0.  1.
         21   -1    0    0  502  503 -0.00000000000E+00 -0.00000000000E+00 -0.14404100403E+03  0.14404100403E+03  0.00000000000E+00 0.  1.
          6    1    1    2  501    0  0.14510477610E+03 -0.96896184451E+02  0.12374594763E+03  0.27511147952E+03  0.17300000000E+03 0.  1.
         -6    1    1    2    0  503 -0.14510477610E+03  0.96896184451E+02  0.15243909481E+03  0.28915557099E+03  0.17300000000E+03 0.  1.
<mgrwt>
<rscale>  2 0.24570972E+03</rscale>
<asrwt>0</asrwt>
<pdfrwt beam="1">  1       21 0.64650161E-01 0.24570972E+03</pdfrwt>
<pdfrwt beam="2">  1       21 0.22160155E-01 0.24570972E+03</pdfrwt>
<totfact> 0.40945672E+04</totfact>
</mgrwt>
</event>
<event>
 4    1  0.4441180E+000  0.2767106E+03  0.7546771E-02  0.1097499E+00
         21   -1    0    0  501  502  0.00000000000E+00  0.00000000000E+00  0.90556687249E+02  0.90556687249E+02  0.00000000000E+00 0. -1.
         21   -1    0    0  502  503 -0.00000000000E+00 -0.00000000000E+00 -0.93996635400E+03  0.93996635400E+03  0.00000000000E+00 0. -1.
          6    1    1    2  501    0  0.15188184373E+03 -0.15353061796E+03 -0.26138749558E+03  0.38064703855E+03  0.17300000000E+03 0. -1.
         -6    1    1    2    0  503 -0.15188184373E+03  0.15353061796E+03 -0.58802217117E+03  0.64987600270E+03  0.17300000000E+03 0. -1.
<mgrwt>
<rscale>  2 0.27671058E+03</rscale>
<asrwt>0</asrwt>
<pdfrwt beam="1">  1       21 0.13931798E-01 0.27671058E+03</pdfrwt>
<pdfrwt beam="2">  1       21 0.14461021E+00 0.27671058E+03</pdfrwt>
<totfact> 0.14022583E+04</totfact>
</mgrwt>
</event>
<event>
 4    1  0.4441180E+000  0.2186388E+03  0.7546771E-02  0.1134902E+00
         21   -1    0    0  501  502  0.00000000000E+00  0.00000000000E+00  0.23900917405E+03  0.23900917405E+03  0.00000000000E+00 0.  1.
         21   -1    0    0  502  503 -0.00000000000E+00 -0.00000000000E+00 -0.25939882280E+03  0.25939882280E+03  0.00000000000E+00 0.  1.
          6    1    1    2  501    0 -0.10395661097E+03 -0.84065206120E+02  0.10905097337E+03  0.24432570605E+03  0.17300000000E+03 0.  1.
         -6    1    1    2    0  503  0.10395661097E+03  0.84065206120E+02 -0.12944062212E+03  0.25408229080E+03  0.17300000000E+03 0.  1.
<mgrwt>
<rscale>  2 0.21863883E+03</rscale>
<asrwt>0</asrwt>
<pdfrwt beam="1">  1       21 0.36770642E-01 0.21863883E+03</pdfrwt>
<pdfrwt beam="2">  1       21 0.39907511E-01 0.21863883E+03</pdfrwt>
<totfact> 0.42617098E+04</totfact>
</mgrwt>
</event>
<event>
 4    1  0.4441180E+000  0.1800659E+03  0.7546771E-02  0.1167739E+00
         21   -1    0    0  501  502  0.00000000000E+00  0.00000000000E+00  0.77187340449E+03  0.77187340449E+03  0.00000000000E+00 0. -1.
         21   -1    0    0  502  503 -0.00000000000E+00 -0.00000000000E+00 -0.42301037114E+02  0.42301037114E+02  0.00000000000E+00 0. -1.
          6    1    1    2  501    0 -0.21265629579E+02  0.45193851757E+02  0.33081807243E+03  0.37664878639E+03  0.17300000000E+03 0. -1.
         -6    1    1    2    0  503  0.21265629579E+02 -0.45193851757E+02  0.39875429494E+03  0.43752565522E+03  0.17300000000E+03 0. -1.
<mgrwt>
<rscale>  2 0.18006585E+03</rscale>
<asrwt>0</asrwt>
<pdfrwt beam="1">  1       21 0.11874974E+00 0.18006585E+03</pdfrwt>
<pdfrwt beam="2">  1       21 0.65078525E-02 0.18006585E+03</pdfrwt>
<totfact> 0.93475870E+04</totfact>
</mgrwt>
</event>
<event>
 4    1  0.4441180E+000  0.1794024E+03  0.7546771E-02  0.1168383E+00
         21   -1    0    0  503  502  0.00000000000E+00  0.00000000000E+00  0.37262530967E+03  0.37262530967E+03  0.00000000000E+00 0. -1.
         21   -1    0    0  501  503 -0.00000000000E+00 -0.00000000000E+00 -0.86478670033E+02  0.86478670033E+02  0.00000000000E+00 0. -1.
          6    1    1    2  501    0  0.47413224376E+02  0.28676738507E+01  0.13509729663E+03  0.22458075820E+03  0.17300000000E+03 0. -1.
         -6    1    1    2    0  502 -0.47413224376E+02 -0.28676738507E+01  0.15104934301E+03  0.23452322150E+03  0.17300000000E+03 0. -1.
<mgrwt>
<rscale>  2 0.17940245E+03</rscale>
<asrwt>0</asrwt>
<pdfrwt beam="1">  1       21 0.57326970E-01 0.17940245E+03</pdfrwt>
<pdfrwt beam="2">  1       21 0.13304411E-01 0.17940245E+03</pdfrwt>
<totfact> 0.13989376E+05</totfact>
</mgrwt>
</event>
<event>
 4    1  0.4441180E+000  0.3857497E+03  0.7546771E-02  0.1048829E+00
         21   -1    0    0  501  502  0.00000000000E+00  0.00000000000E+00  0.27036910285E+03  0.27036910285E+03  0.00000000000E+00 0. -1.
         21   -1    0    0  502  503 -0.00000000000E+00 -0.00000000000E+00 -0.55059298234E+03  0.55059298234E+03  0.00000000000E+00 0. -1.
          6    1    1    2  501    0  0.15744091868E+03  0.30673473840E+03 -0.13183758667E+03  0.40765670836E+03  0.17300000000E+03 0. -1.
         -6    1    1    2    0  503 -0.15744091868E+03 -0.30673473840E+03 -0.14838629282E+03  0.41330537682E+03  0.17300000000E+03 0. -1.
<mgrwt>
<rscale>  2 0.38574971E+03</rscale>
<asrwt>0</asrwt>
<pdfrwt beam="1">  1       21 0.41595246E-01 0.38574971E+03</pdfrwt>
<pdfrwt beam="2">  1       21 0.84706614E-01 0.38574971E+03</pdfrwt>
<totfact> 0.60644313E+03</totfact>
</mgrwt>
</event>
<event>
 4    1  0.4441180E+000  0.1994965E+03  0.7546771E-02  0.1150164E+00
         21   -1    0    0  501  502  0.00000000000E+00  0.00000000000E+00  0.71235590267E+03  0.71235590267E+03  0.00000000000E+00 0. -1.
         21   -1    0    0  502  503 -0.00000000000E+00 -0.00000000000E+00 -0.80574807592E+02  0.80574807592E+02  0.00000000000E+00 0. -1.
          6    1    1    2  501    0 -0.49811049355E+02 -0.85957716397E+02  0.53542462906E+03  0.57138288655E+03  0.17300000000E+03 0. -1.
         -6    1    1    2    0  503  0.49811049355E+02  0.85957716397E+02  0.96356466022E+02  0.22154782371E+03  0.17300000000E+03 0. -1.
<mgrwt>
<rscale>  2 0.19949654E+03</rscale>
<asrwt>0</asrwt>
<pdfrwt beam="1">  1       21 0.10959321E+00 0.19949654E+03</pdfrwt>
<pdfrwt beam="2">  1       21 0.12396125E-01 0.19949654E+03</pdfrwt>
<totfact> 0.36345701E+04</totfact>
</mgrwt>
</event>
<event>
 4    1  0.4441180E+000  0.2338363E+03  0.7546771E-02  0.1123968E+00
         21   -1    0    0  501  502  0.00000000000E+00  0.00000000000E+00  0.45755863560E+03  0.45755863560E+03  0.00000000000E+00 0.  1.
         21   -1    0    0  502  503 -0.00000000000E+00 -0.00000000000E+00 -0.12816626348E+03  0.12816626348E+03  0.00000000000E+00 0.  1.
          6    1    1    2  501    0 -0.15520586994E+03  0.25720881142E+02  0.24083897090E+03  0.33568264133E+03  0.17300000000E+03 0.  1.
         -6    1    1    2    0  503  0.15520586994E+03 -0.25720881142E+02  0.88553401226E+02  0.25004225774E+03  0.17300000000E+03 0.  1.
<mgrwt>
<rscale>  2 0.23383632E+03</rscale>
<asrwt>0</asrwt>
<pdfrwt beam="1">  1       21 0.70393635E-01 0.23383632E+03</pdfrwt>
<pdfrwt beam="2">  1       21 0.19717887E-01 0.23383632E+03</pdfrwt>
<totfact> 0.42522143E+04</totfact>
</mgrwt>
</event>
<event>
 4    1  0.4441180E+000  0.1939168E+03  0.7546771E-02  0.1154975E+00
         21   -1    0    0  503  502  0.00000000000E+00  0.00000000000E+00  0.11407255288E+04  0.11407255288E+04  0.00000000000E+00 0.  1.
         21   -1    0    0  501  503 -0.00000000000E+00 -0.00000000000E+00 -0.33352559884E+02  0.33352559884E+02  0.00000000000E+00 0.  1.
          6    1    1    2  501    0 -0.75262574270E+02 -0.44836165478E+02  0.49038565354E+03  0.52733464329E+03  0.17300000000E+03 0.  1.
         -6    1    1    2    0  502  0.75262574270E+02  0.44836165478E+02  0.61698731538E+03  0.64674344539E+03  0.17300000000E+03 0.  1.
<mgrwt>
<rscale>  2 0.19391683E+03</rscale>
<asrwt>0</asrwt>
<pdfrwt beam="1">  1       21 0.17549621E+00 0.19391683E+03</pdfrwt>
<pdfrwt beam="2">  1       21 0.51311639E-02 0.19391683E+03</pdfrwt>
<totfact> 0.50257546E+04</totfact>
</mgrwt>
</event>
<event>
 4    1  0.4441180E+000  0.2229212E+03  0.7546771E-02  0.1131724E+00
         21   -1    0    0  503  502  0.00000000000E+00  0.00000000000E+00  0.24263539925E+03  0.24263539925E+03  0.00000000000E+00 0. -1.
         21   -1    0    0  501  503 -0.00000000000E+00 -0.00000000000E+00 -0.20513111032E+03  0.20513111032E+03  0.00000000000E+00 0.  1.
          6    1    1    2  501    0  0.14052480818E+02 -0.13988349359E+03  0.98776091011E+01  0.22313993627E+03  0.17300000000E+03 0. -1.
         -6    1    1    2    0  502 -0.14052480818E+02  0.13988349359E+03  0.27626679822E+02  0.22462657330E+03  0.17300000000E+03 0.  1.
<mgrwt>
<rscale>  2 0.22292121E+03</rscale>
<asrwt>0</asrwt>
<pdfrwt beam="1">  1       21 0.37328523E-01 0.22292121E+03</pdfrwt>
<pdfrwt beam="2">  1       21 0.31558633E-01 0.22292121E+03</pdfrwt>
<totfact> 0.65924451E+04</totfact>
</mgrwt>
</event>
<event>
 4    1  0.4441180E+000  0.1733280E+03  0.7546771E-02  0.1174421E+00
         21   -1    0    0  501  502  0.00000000000E+00  0.00000000000E+00  0.25787967185E+02  0.25787967185E+02  0.00000000000E+00 0. -1.
         21   -1    0    0  502  503 -0.00000000000E+00 -0.00000000000E+00 -0.13742856409E+04  0.13742856409E+04  0.00000000000E+00 0. -1.
          6    1    1    2  501    0  0.10591204497E+02 -0.11879828776E+01 -0.40105679016E+03  0.43690861041E+03  0.17300000000E+03 0. -1.
         -6    1    1    2    0  503 -0.10591204497E+02  0.11879828776E+01 -0.94744088351E+03  0.96316499763E+03  0.17300000000E+03 0. -1.
<mgrwt>
<rscale>  2 0.17332797E+03</rscale>
<asrwt>0</asrwt>
<pdfrwt beam="1">  1       21 0.39673784E-02 0.17332797E+03</pdfrwt>
<pdfrwt beam="2">  1       21 0.21142862E+00 0.17332797E+03</pdfrwt>
<totfact> 0.45780586E+04</totfact>
</mgrwt>
</event>
<event>
 4    1  0.4441180E+000  0.1838696E+03  0.7546771E-02  0.1164110E+00
         21   -1    0    0  501  502  0.00000000000E+00  0.00000000000E+00  0.62831097541E+03  0.62831097541E+03  0.00000000000E+00 0. -1.
         21   -1    0    0  502  503 -0.00000000000E+00 -0.00000000000E+00 -0.36733533450E+03  0.36733533450E+03  0.00000000000E+00 0. -1.
          6    1    1    2  501    0  0.55502979236E+02  0.28256599379E+02  0.59040708413E+03  0.61837572810E+03  0.17300000000E+03 0. -1.
         -6    1    1    2    0  503 -0.55502979236E+02 -0.28256599379E+02 -0.32943144323E+03  0.37727058181E+03  0.17300000000E+03 0. -1.
<mgrwt>
<rscale>  2 0.18386956E+03</rscale>
<asrwt>0</asrwt>
<pdfrwt beam="1">  1       21 0.96663227E-01 0.18386956E+03</pdfrwt>
<pdfrwt beam="2">  1       21 0.56513128E-01 0.18386956E+03</pdfrwt>
<totfact> 0.26395298E+03</totfact>
</mgrwt>
</event>
<event>
 4    1  0.4441180E+000  0.1991245E+03  0.7546771E-02  0.1150480E+00
         21   -1    0    0  503  502  0.00000000000E+00  0.00000000000E+00  0.49014135643E+03  0.49014135643E+03  0.00000000000E+00 0. -1.
         21   -1    0    0  501  503 -0.00000000000E+00 -0.00000000000E+00 -0.89770491554E+02  0.89770491554E+02  0.00000000000E+00 0.  1.
          6    1    1    2  501    0  0.98375991003E+02  0.66140079830E+01  0.10901969360E+03  0.22701514112E+03  0.17300000000E+03 0.  1.
         -6    1    1    2    0  502 -0.98375991003E+02 -0.66140079830E+01  0.29135117128E+03  0.35289670686E+03  0.17300000000E+03 0. -1.
<mgrwt>
<rscale>  2 0.19912454E+03</rscale>
<asrwt>0</asrwt>
<pdfrwt beam="1">  1       21 0.75406361E-01 0.19912454E+03</pdfrwt>
<pdfrwt beam="2">  1       21 0.13810845E-01 0.19912454E+03</pdfrwt>
<totfact> 0.71376977E+04</totfact>
</mgrwt>
</event>
<event>
 4    1  0.4441180E+000  0.2079796E+03  0.7546771E-02  0.1143176E+00
         21   -1    0    0  503  502  0.00000000000E+00  0.00000000000E+00  0.30817209418E+03  0.30817209418E+03  0.00000000000E+00 0. -1.
         21   -1    0    0  501  503 -0.00000000000E+00 -0.00000000000E+00 -0.16883670074E+03  0.16883670074E+03  0.00000000000E+00 0. -1.
          6    1    1    2  501    0 -0.10221219251E+03 -0.53657896982E+02 -0.28280453916E+02  0.20989351176E+03  0.17300000000E+03 0. -1.
         -6    1    1    2    0  502  0.10221219251E+03  0.53657896982E+02  0.16761584736E+03  0.26711528315E+03  0.17300000000E+03 0. -1.
<mgrwt>
<rscale>  2 0.20797957E+03</rscale>
<asrwt>0</asrwt>
<pdfrwt beam="1">  1       21 0.47411091E-01 0.20797957E+03</pdfrwt>
<pdfrwt beam="2">  1       21 0.25974877E-01 0.20797957E+03</pdfrwt>
<totfact> 0.59481159E+04</totfact>
</mgrwt>
</event>
<event>
 4    1  0.4441180E+000  0.1763148E+03  0.7546771E-02  0.1171418E+00
         21   -1    0    0  501  502  0.00000000000E+00  0.00000000000E+00  0.14705450531E+03  0.14705450531E+03  0.00000000000E+00 0. -1.
         21   -1    0    0  502  503 -0.00000000000E+00 -0.00000000000E+00 -0.63013121668E+03  0.63013121668E+03  0.00000000000E+00 0. -1.
          6    1    1    2  501    0 -0.18522535807E+02 -0.28545001554E+02  0.75234875285E+02  0.19169556047E+03  0.17300000000E+03 0. -1.
         -6    1    1    2    0  503  0.18522535807E+02  0.28545001554E+02 -0.55831158665E+03  0.58549016152E+03  0.17300000000E+03 0. -1.
<mgrwt>
<rscale>  2 0.17631478E+03</rscale>
<asrwt>0</asrwt>
<pdfrwt beam="1">  1       21 0.22623770E-01 0.17631478E+03</pdfrwt>
<pdfrwt beam="2">  1       21 0.96943265E-01 0.17631478E+03</pdfrwt>
<totfact> 0.16347624E+04</totfact>
</mgrwt>
</event>
<event>
 4    1  0.4441180E+000  0.2054318E+03  0.7546771E-02  0.1145235E+00
         21   -1    0    0  501  502  0.00000000000E+00  0.00000000000E+00  0.31698813637E+03  0.31698813637E+03  0.00000000000E+00 0.  1.
         21   -1    0    0  502  503 -0.00000000000E+00 -0.00000000000E+00 -0.17691568629E+03  0.17691568629E+03  0.00000000000E+00 0.  1.
          6    1    1    2  501    0 -0.80984482706E+02 -0.75595909231E+02  0.19288485279E+03  0.28179211197E+03  0.17300000000E+03 0.  1.
         -6    1    1    2    0  503  0.80984482706E+02  0.75595909231E+02 -0.52812402717E+02  0.21211171069E+03  0.17300000000E+03 0.  1.
<mgrwt>
<rscale>  2 0.20543181E+03</rscale>
<asrwt>0</asrwt>
<pdfrwt beam="1">  1       21 0.48767406E-01 0.20543181E+03</pdfrwt>
<pdfrwt beam="2">  1       21 0.27217798E-01 0.20543181E+03</pdfrwt>
<totfact> 0.51331085E+04</totfact>
</mgrwt>
</event>
<event>
 4    1  0.4441180E+000  0.2436864E+03  0.7546771E-02  0.1117361E+00
         21   -1    0    0  501  502  0.00000000000E+00  0.00000000000E+00  0.19601566229E+03  0.19601566229E+03  0.00000000000E+00 0.  1.
         21   -1    0    0  502  503 -0.00000000000E+00 -0.00000000000E+00 -0.47111096038E+03  0.47111096038E+03  0.00000000000E+00 0.  1.
          6    1    1    2  501    0  0.15452829044E+03 -0.74666444296E+02  0.61739105568E+02  0.25138573469E+03  0.17300000000E+03 0.  1.
         -6    1    1    2    0  503 -0.15452829044E+03  0.74666444296E+02 -0.33683440365E+03  0.41574088797E+03  0.17300000000E+03 0.  1.
<mgrwt>
<rscale>  2 0.24368642E+03</rscale>
<asrwt>0</asrwt>
<pdfrwt beam="1">  1       21 0.30156256E-01 0.24368642E+03</pdfrwt>
<pdfrwt beam="2">  1       21 0.72478609E-01 0.24368642E+03</pdfrwt>
<totfact> 0.17577798E+04</totfact>
</mgrwt>
</event>
<event>
 4    1  0.4441180E+000  0.2688697E+03  0.7546771E-02  0.1101928E+00
         21   -1    0    0  503  502  0.00000000000E+00  0.00000000000E+00  0.46124531893E+03  0.46124531893E+03  0.00000000000E+00 0. -1.
         21   -1    0    0  501  503 -0.00000000000E+00 -0.00000000000E+00 -0.21740544958E+03  0.21740544958E+03  0.00000000000E+00 0.  1.
          6    1    1    2  501    0 -0.18256528049E+03  0.95035850454E+02 -0.57342087938E+02  0.27491636830E+03  0.17300000000E+03 0. -1.
         -6    1    1    2    0  502  0.18256528049E+03 -0.95035850454E+02  0.30118195729E+03  0.40373440020E+03  0.17300000000E+03 0. -1.
<mgrwt>
<rscale>  2 0.26886966E+03</rscale>
<asrwt>0</asrwt>
<pdfrwt beam="1">  1       21 0.70960818E-01 0.26886966E+03</pdfrwt>
<pdfrwt beam="2">  1       21 0.33446992E-01 0.26886966E+03</pdfrwt>
<totfact> 0.14833276E+04</totfact>
</mgrwt>
</event>
<event>
 4    1  0.4441180E+000  0.1799999E+03  0.7546771E-02  0.1167803E+00
         21   -1    0    0  503  502  0.00000000000E+00  0.00000000000E+00  0.16453362831E+03  0.16453362831E+03  0.00000000000E+00 0.  1.
         21   -1    0    0  501  503 -0.00000000000E+00 -0.00000000000E+00 -0.33521464544E+03  0.33521464544E+03  0.00000000000E+00 0.  1.
          6    1    1    2  501    0  0.15111019665E+02  0.47356326330E+02 -0.24583586577E+03  0.30468875506E+03  0.17300000000E+03 0.  1.
         -6    1    1    2    0  502 -0.15111019665E+02 -0.47356326330E+02  0.75154848644E+02  0.19505951869E+03  0.17300000000E+03 0.  1.
<mgrwt>
<rscale>  2 0.17999990E+03</rscale>
<asrwt>0</asrwt>
<pdfrwt beam="1">  1       21 0.25312866E-01 0.17999990E+03</pdfrwt>
<pdfrwt beam="2">  1       21 0.51571483E-01 0.17999990E+03</pdfrwt>
<totfact> 0.53141458E+04</totfact>
</mgrwt>
</event>
<event>
 4    1  0.4441180E+000  0.1761730E+03  0.7546771E-02  0.1171559E+00
         21   -1    0    0  503  502  0.00000000000E+00  0.00000000000E+00  0.56397884828E+02  0.56397884828E+02  0.00000000000E+00 0. -1.
         21   -1    0    0  501  503 -0.00000000000E+00 -0.00000000000E+00 -0.56213186094E+03  0.56213186094E+03  0.00000000000E+00 0. -1.
          6    1    1    2  501    0  0.33051304917E+02  0.39426964837E+01 -0.29769551590E+03  0.34591842073E+03  0.17300000000E+03 0.  1.
         -6    1    1    2    0  502 -0.33051304917E+02 -0.39426964837E+01 -0.20803846020E+03  0.27261132503E+03  0.17300000000E+03 0.  1.
<mgrwt>
<rscale>  2 0.17617302E+03</rscale>
<asrwt>0</asrwt>
<pdfrwt beam="1">  1       21 0.86765972E-02 0.17617302E+03</pdfrwt>
<pdfrwt beam="2">  1       21 0.86481829E-01 0.17617302E+03</pdfrwt>
<totfact> 0.12070080E+05</totfact>
</mgrwt>
</event>
<event>
 4    1  0.4441180E+000  0.2772915E+03  0.7546771E-02  0.1097178E+00
         21   -1    0    0  501  502  0.00000000000E+00  0.00000000000E+00  0.35557839794E+03  0.35557839794E+03  0.00000000000E+00 0.  1.
         21   -1    0    0  502  503 -0.00000000000E+00 -0.00000000000E+00 -0.36589641512E+03  0.36589641512E+03  0.00000000000E+00 0.  1.
          6    1    1    2  501    0 -0.13974137061E+03  0.16563192387E+03  0.22554678285E+03  0.35743801717E+03  0.17300000000E+03 0.  1.
         -6    1    1    2    0  503  0.13974137061E+03 -0.16563192387E+03 -0.23586480003E+03  0.36403679588E+03  0.17300000000E+03 0.  1.
<mgrwt>
<rscale>  2 0.27729152E+03</rscale>
<asrwt>0</asrwt>
<pdfrwt beam="1">  1       21 0.54704369E-01 0.27729152E+03</pdfrwt>
<pdfrwt beam="2">  1       21 0.56291756E-01 0.27729152E+03</pdfrwt>
<totfact> 0.89041531E+03</totfact>
</mgrwt>
</event>
<event>
 4    1  0.4441180E+000  0.2447163E+03  0.7546771E-02  0.1116690E+00
         21   -1    0    0  503  502  0.00000000000E+00  0.00000000000E+00  0.13743808273E+03  0.13743808273E+03  0.00000000000E+00 0. -1.
         21   -1    0    0  501  503 -0.00000000000E+00 -0.00000000000E+00 -0.44180752790E+03  0.44180752790E+03  0.00000000000E+00 0.  1.
          6    1    1    2  501    0 -0.99238946255E+02 -0.14180519646E+03 -0.11821975419E+03  0.27177562892E+03  0.17300000000E+03 0. -1.
         -6    1    1    2    0  502  0.99238946255E+02  0.14180519646E+03 -0.18614969099E+03  0.30746998171E+03  0.17300000000E+03 0.  1.
<mgrwt>
<rscale>  2 0.24471633E+03</rscale>
<asrwt>0</asrwt>
<pdfrwt beam="1">  1       21 0.21144321E-01 0.24471633E+03</pdfrwt>
<pdfrwt beam="2">  1       21 0.67970388E-01 0.24471633E+03</pdfrwt>
<totfact> 0.40102022E+04</totfact>
</mgrwt>
</event>
<event>
 4    1  0.4441180E+000  0.1942555E+03  0.7546771E-02  0.1154678E+00
         21   -1    0    0  503  502  0.00000000000E+00  0.00000000000E+00  0.75967818898E+02  0.75967818898E+02  0.00000000000E+00 0.  1.
         21   -1    0    0  501  503 -0.00000000000E+00 -0.00000000000E+00 -0.49690696318E+03  0.49690696318E+03  0.00000000000E+00 0. -1.
          6    1    1    2  501    0  0.81750316350E+02 -0.33512358135E+02 -0.20500366034E+03  0.28242112726E+03  0.17300000000E+03 0. -1.
         -6    1    1    2    0  502 -0.81750316350E+02  0.33512358135E+02 -0.21593548394E+03  0.29045365482E+03  0.17300000000E+03 0. -1.
<mgrwt>
<rscale>  2 0.19425548E+03</rscale>
<asrwt>0</asrwt>
<pdfrwt beam="1">  1       21 0.11687357E-01 0.19425548E+03</pdfrwt>
<pdfrwt beam="2">  1       21 0.76447225E-01 0.19425548E+03</pdfrwt>
<totfact> 0.93656147E+04</totfact>
</mgrwt>
</event>
<event>
 4    1  0.4441180E+000  0.1878899E+03  0.7546771E-02  0.1160378E+00
         21   -1    0    0  501  502  0.00000000000E+00  0.00000000000E+00  0.10757793212E+04  0.10757793212E+04  0.00000000000E+00 0. -1.
         21   -1    0    0  502  503 -0.00000000000E+00 -0.00000000000E+00 -0.79802527686E+02  0.79802527686E+02  0.00000000000E+00 0. -1.
          6    1    1    2  501    0 -0.38710643236E+02 -0.62250225456E+02  0.94134154554E+03  0.95990963628E+03  0.17300000000E+03 0. -1.
         -6    1    1    2    0  503  0.38710643236E+02  0.62250225456E+02  0.54635247992E+02  0.19567221262E+03  0.17300000000E+03 0. -1.
<mgrwt>
<rscale>  2 0.18788987E+03</rscale>
<asrwt>0</asrwt>
<pdfrwt beam="1">  1       21 0.16550450E+00 0.18788987E+03</pdfrwt>
<pdfrwt beam="2">  1       21 0.12277313E-01 0.18788987E+03</pdfrwt>
<totfact> 0.12981566E+04</totfact>
</mgrwt>
</event>
<event>
 4    1  0.4441180E+000  0.3107216E+03  0.7546771E-02  0.1080001E+00
         21   -1    0    0  501  502  0.00000000000E+00  0.00000000000E+00  0.46977900400E+03  0.46977900400E+03  0.00000000000E+00 0.  1.
         21   -1    0    0  502  503 -0.00000000000E+00 -0.00000000000E+00 -0.24770681789E+03  0.24770681789E+03  0.00000000000E+00 0.  1.
          6    1    1    2  501    0  0.25466956709E+03 -0.41980050098E+02  0.25908814543E+03  0.40456715154E+03  0.17300000000E+03 0.  1.
         -6    1    1    2    0  503 -0.25466956709E+03  0.41980050098E+02 -0.37015959322E+02  0.31291867035E+03  0.17300000000E+03 0.  1.
<mgrwt>
<rscale>  2 0.31072160E+03</rscale>
<asrwt>0</asrwt>
<pdfrwt beam="1">  1       21 0.72273693E-01 0.31072160E+03</pdfrwt>
<pdfrwt beam="2">  1       21 0.38108741E-01 0.31072160E+03</pdfrwt>
<totfact> 0.10748628E+04</totfact>
</mgrwt>
</event>
<event>
 4    1  0.4441180E+000  0.1850605E+03  0.7546771E-02  0.1162993E+00
         21   -1    0    0  501  502  0.00000000000E+00  0.00000000000E+00  0.46544243922E+02  0.46544243922E+02  0.00000000000E+00 0.  1.
         21   -1    0    0  502  503 -0.00000000000E+00 -0.00000000000E+00 -0.76522618958E+03  0.76522618958E+03  0.00000000000E+00 0.  1.
          6    1    1    2  501    0  0.14318175258E+02 -0.64135769329E+02 -0.27975231589E+03  0.33542326290E+03  0.17300000000E+03 0.  1.
         -6    1    1    2    0  503 -0.14318175258E+02  0.64135769329E+02 -0.43892962976E+03  0.47634717060E+03  0.17300000000E+03 0.  1.
<mgrwt>
<rscale>  2 0.18506055E+03</rscale>
<asrwt>0</asrwt>
<pdfrwt beam="1">  1       21 0.71606528E-02 0.18506055E+03</pdfrwt>
<pdfrwt beam="2">  1       21 0.11772711E+00 0.18506055E+03</pdfrwt>
<totfact> 0.80803038E+04</totfact>
</mgrwt>
</event>
<event>
 4    1  0.4441180E+000  0.1904717E+03  0.7546771E-02  0.1158037E+00
         21   -1    0    0  503  502  0.00000000000E+00  0.00000000000E+00  0.13030529438E+03  0.13030529438E+03  0.00000000000E+00 0.  1.
         21   -1    0    0  501  503 -0.00000000000E+00 -0.00000000000E+00 -0.29029354661E+03  0.29029354661E+03  0.00000000000E+00 0.  1.
          6    1    1    2  501    0 -0.26698195495E+02 -0.75084361636E+02 -0.12252751373E+03  0.22647835796E+03  0.17300000000E+03 0.  1.
         -6    1    1    2    0  502  0.26698195495E+02  0.75084361636E+02 -0.37460738506E+02  0.19412048304E+03  0.17300000000E+03 0.  1.
<mgrwt>
<rscale>  2 0.19047166E+03</rscale>
<asrwt>0</asrwt>
<pdfrwt beam="1">  1       21 0.20046969E-01 0.19047166E+03</pdfrwt>
<pdfrwt beam="2">  1       21 0.44660545E-01 0.19047166E+03</pdfrwt>
<totfact> 0.11070142E+05</totfact>
</mgrwt>
</event>
<event>
 4    1  0.4441180E+000  0.2329869E+03  0.7546771E-02  0.1124555E+00
         21   -1    0    0  503  502  0.00000000000E+00  0.00000000000E+00  0.48465712353E+02  0.48465712353E+02  0.00000000000E+00 0. -1.
         21   -1    0    0  501  503 -0.00000000000E+00 -0.00000000000E+00 -0.13277390699E+04  0.13277390699E+04  0.00000000000E+00 0. -1.
          6    1    1    2  501    0  0.50104747186E+02  0.14779514487E+03 -0.91179894254E+03  0.94109521418E+03  0.17300000000E+03 0. -1.
         -6    1    1    2    0  502 -0.50104747186E+02 -0.14779514487E+03 -0.36747441497E+03  0.43510956804E+03  0.17300000000E+03 0. -1.
<mgrwt>
<rscale>  2 0.23298689E+03</rscale>
<asrwt>0</asrwt>
<pdfrwt beam="1">  1       21 0.74562631E-02 0.23298689E+03</pdfrwt>
<pdfrwt beam="2">  1       21 0.20426756E+00 0.23298689E+03</pdfrwt>
<totfact> 0.16596164E+04</totfact>
</mgrwt>
</event>
<event>
 4    1  0.4441180E+000  0.2195206E+03  0.7546771E-02  0.1134241E+00
         21   -1    0    0  501  502  0.00000000000E+00  0.00000000000E+00  0.33280590044E+03  0.33280590044E+03  0.00000000000E+00 0. -1.
         21   -1    0    0  502  503 -0.00000000000E+00 -0.00000000000E+00 -0.20749485773E+03  0.20749485773E+03  0.00000000000E+00 0. -1.
          6    1    1    2  501    0 -0.10360440925E+03  0.86754921138E+02  0.21115616148E+03  0.30459188185E+03  0.17300000000E+03 0. -1.
         -6    1    1    2    0  503  0.10360440925E+03 -0.86754921138E+02 -0.85845118765E+02  0.23570887632E+03  0.17300000000E+03 0. -1.
<mgrwt>
<rscale>  2 0.21952059E+03</rscale>
<asrwt>0</asrwt>
<pdfrwt beam="1">  1       21 0.51200908E-01 0.21952059E+03</pdfrwt>
<pdfrwt beam="2">  1       21 0.31922286E-01 0.21952059E+03</pdfrwt>
<totfact> 0.33744688E+04</totfact>
</mgrwt>
</event>
<event>
 4    1  0.4441180E+000  0.2575526E+03  0.7546771E-02  0.1108623E+00
         21   -1    0    0  503  502  0.00000000000E+00  0.00000000000E+00  0.21397644581E+03  0.21397644581E+03  0.00000000000E+00 0. -1.
         21   -1    0    0  501  503 -0.00000000000E+00 -0.00000000000E+00 -0.61781616100E+03  0.61781616100E+03  0.00000000000E+00 0.  1.
          6    1    1    2  501    0 -0.13377454612E+03 -0.13604668374E+03 -0.49548132909E+03  0.55842195231E+03  0.17300000000E+03 0.  1.
         -6    1    1    2    0  502  0.13377454612E+03  0.13604668374E+03  0.91641613894E+02  0.27337065450E+03  0.17300000000E+03 0. -1.
<mgrwt>
<rscale>  2 0.25755258E+03</rscale>
<asrwt>0</asrwt>
<pdfrwt beam="1">  1       21 0.32919453E-01 0.25755258E+03</pdfrwt>
<pdfrwt beam="2">  1       21 0.95048641E-01 0.25755258E+03</pdfrwt>
<totfact> 0.78796312E+03</totfact>
</mgrwt>
</event>
<event>
 4    1  0.4441180E+000  0.2801143E+03  0.7546771E-02  0.1095627E+00
         21   -1    0    0  501  502  0.00000000000E+00  0.00000000000E+00  0.67046726099E+03  0.67046726099E+03  0.00000000000E+00 0.  1.
         21   -1    0    0  502  503 -0.00000000000E+00 -0.00000000000E+00 -0.14748948503E+03  0.14748948503E+03  0.00000000000E+00 0.  1.
          6    1    1    2  501    0 -0.22004664505E+03 -0.10700301651E+02  0.44735027942E+03  0.52781274611E+03  0.17300000000E+03 0.  1.
         -6    1    1    2    0  503  0.22004664505E+03  0.10700301651E+02  0.75627496535E+02  0.29014399991E+03  0.17300000000E+03 0.  1.
<mgrwt>
<rscale>  2 0.28011430E+03</rscale>
<asrwt>0</asrwt>
<pdfrwt beam="1">  1       21 0.10314881E+00 0.28011430E+03</pdfrwt>
<pdfrwt beam="2">  1       21 0.22690690E-01 0.28011430E+03</pdfrwt>
<totfact> 0.13203684E+04</totfact>
</mgrwt>
</event>
<event>
 4    1  0.4441180E+000  0.1903512E+03  0.7546771E-02  0.1158145E+00
         21   -1    0    0  503  502  0.00000000000E+00  0.00000000000E+00  0.87756685533E+03  0.87756685533E+03  0.00000000000E+00 0.  1.
         21   -1    0    0  501  503 -0.00000000000E+00 -0.00000000000E+00 -0.55370322928E+02  0.55370322928E+02  0.00000000000E+00 0.  1.
          6    1    1    2  501    0 -0.27834891421E+02  0.74362672564E+02  0.17585871411E+03  0.25915222472E+03  0.17300000000E+03 0.  1.
         -6    1    1    2    0  502  0.27834891421E+02 -0.74362672564E+02  0.64633781829E+03  0.67378495353E+03  0.17300000000E+03 0.  1.
<mgrwt>
<rscale>  2 0.19035122E+03</rscale>
<asrwt>0</asrwt>
<pdfrwt beam="1">  1       21 0.13501027E+00 0.19035122E+03</pdfrwt>
<pdfrwt beam="2">  1       21 0.85185119E-02 0.19035122E+03</pdfrwt>
<totfact> 0.42297269E+04</totfact>
</mgrwt>
</event>
<event>
 4    1  0.4441180E+000  0.2880532E+03  0.7546771E-02  0.1091370E+00
         21   -1    0    0  501  502  0.00000000000E+00  0.00000000000E+00  0.37089949993E+03  0.37089949993E+03  0.00000000000E+00 0.  1.
         21   -1    0    0  502  503 -0.00000000000E+00 -0.00000000000E+00 -0.35192738814E+03  0.35192738814E+03  0.00000000000E+00 0. -1.
          6    1    1    2  501    0  0.14777591615E+03 -0.17665760086E+03  0.22763244413E+03  0.36713915476E+03  0.17300000000E+03 0.  1.
         -6    1    1    2    0  503 -0.14777591615E+03  0.17665760086E+03 -0.20866033235E+03  0.35568773332E+03  0.17300000000E+03 0.  1.
<mgrwt>
<rscale>  2 0.28805317E+03</rscale>
<asrwt>0</asrwt>
<pdfrwt beam="1">  1       21 0.57061462E-01 0.28805317E+03</pdfrwt>
<pdfrwt beam="2">  1       21 0.54142675E-01 0.28805317E+03</pdfrwt>
<totfact> 0.87943149E+03</totfact>
</mgrwt>
</event>
<event>
 4    1  0.4441180E+000  0.1801003E+03  0.7546771E-02  0.1167706E+00
         21   -1    0    0  503  502  0.00000000000E+00  0.00000000000E+00  0.26047000965E+02  0.26047000965E+02  0.00000000000E+00 0.  1.
         21   -1    0    0  501  503 -0.00000000000E+00 -0.00000000000E+00 -0.14938245672E+04  0.14938245672E+04  0.00000000000E+00 0.  1.
          6    1    1    2  501    0  0.34361490154E+01 -0.49953093213E+02 -0.10438582094E+04  0.10592809259E+04  0.17300000000E+03 0.  1.
         -6    1    1    2    0  502 -0.34361490154E+01  0.49953093213E+02 -0.42391935680E+03  0.46059064223E+03  0.17300000000E+03 0.  1.
<mgrwt>
<rscale>  2 0.18010030E+03</rscale>
<asrwt>0</asrwt>
<pdfrwt beam="1">  1       21 0.40072311E-02 0.18010030E+03</pdfrwt>
<pdfrwt beam="2">  1       21 0.22981915E+00 0.18010030E+03</pdfrwt>
<totfact> 0.34586968E+04</totfact>
</mgrwt>
</event>
<event>
 4    1  0.4441180E+000  0.2176028E+03  0.7546771E-02  0.1135683E+00
         21   -1    0    0  503  502  0.00000000000E+00  0.00000000000E+00  0.32116645783E+03  0.32116645783E+03  0.00000000000E+00 0. -1.
         21   -1    0    0  501  503 -0.00000000000E+00 -0.00000000000E+00 -0.15053731335E+03  0.15053731335E+03  0.00000000000E+00 0. -1.
          6    1    1    2  501    0  0.11421838307E+03  0.66152296386E+02  0.51453074601E+02  0.22360318476E+03  0.17300000000E+03 0. -1.
         -6    1    1    2    0  502 -0.11421838307E+03 -0.66152296386E+02  0.11917606988E+03  0.24810058642E+03  0.17300000000E+03 0. -1.
<mgrwt>
<rscale>  2 0.21760277E+03</rscale>
<asrwt>0</asrwt>
<pdfrwt beam="1">  1       21 0.49410224E-01 0.21760277E+03</pdfrwt>
<pdfrwt beam="2">  1       21 0.23159587E-01 0.21760277E+03</pdfrwt>
<totfact> 0.67670466E+04</totfact>
</mgrwt>
</event>
<event>
 4    1  0.4441180E+000  0.2127796E+03  0.7546771E-02  0.1139384E+00
         21   -1    0    0  503  502  0.00000000000E+00  0.00000000000E+00  0.24696213019E+03  0.24696213019E+03  0.00000000000E+00 0. -1.
         21   -1    0    0  501  503 -0.00000000000E+00 -0.00000000000E+00 -0.47032588146E+03  0.47032588146E+03  0.00000000000E+00 0. -1.
          6    1    1    2  501    0  0.63461783066E+01 -0.12371694994E+03 -0.39184000238E+03  0.44588534978E+03  0.17300000000E+03 0. -1.
         -6    1    1    2    0  502 -0.63461783066E+01  0.12371694994E+03  0.16847625111E+03  0.27140266187E+03  0.17300000000E+03 0. -1.
<mgrwt>
<rscale>  2 0.21277960E+03</rscale>
<asrwt>0</asrwt>
<pdfrwt beam="1">  1       21 0.37994174E-01 0.21277960E+03</pdfrwt>
<pdfrwt beam="2">  1       21 0.72357827E-01 0.21277960E+03</pdfrwt>
<totfact> 0.11351533E+04</totfact>
</mgrwt>
</event>
<event>
 4    1  0.4441180E+000  0.2173381E+03  0.7546771E-02  0.1135883E+00
         21   -1    0    0  501  502  0.00000000000E+00  0.00000000000E+00  0.10488461072E+04  0.10488461072E+04  0.00000000000E+00 0.  1.
         21   -1    0    0  502  503 -0.00000000000E+00 -0.00000000000E+00 -0.45053636455E+02  0.45053636455E+02  0.00000000000E+00 0. -1.
          6    1    1    2  501    0  0.10127593244E+03 -0.83964522206E+02  0.51271126097E+03  0.55687403657E+03  0.17300000000E+03 0.  1.
         -6    1    1    2    0  503 -0.10127593244E+03  0.83964522206E+02  0.49108120982E+03  0.53702570713E+03  0.17300000000E+03 0.  1.
<mgrwt>
<rscale>  2 0.21733811E+03</rscale>
<asrwt>0</asrwt>
<pdfrwt beam="1">  1       21 0.16136092E+00 0.21733811E+03</pdfrwt>
<pdfrwt beam="2">  1       21 0.69313295E-02 0.21733811E+03</pdfrwt>
<totfact> 0.37290935E+04</totfact>
</mgrwt>
</event>
<event>
 4    1  0.4441180E+000  0.2006193E+03  0.7546771E-02  0.1149218E+00
         21   -1    0    0  503  502  0.00000000000E+00  0.00000000000E+00  0.23831095118E+03  0.23831095118E+03  0.00000000000E+00 0.  1.
         21   -1    0    0  501  503 -0.00000000000E+00 -0.00000000000E+00 -0.25266977701E+03  0.25266977701E+03  0.00000000000E+00 0.  1.
          6    1    1    2  501    0  0.50681327900E+02 -0.88037072694E+02 -0.14854044985E+03  0.24962449481E+03  0.17300000000E+03 0.  1.
         -6    1    1    2    0  502 -0.50681327900E+02  0.88037072694E+02  0.13418162402E+03  0.24135623338E+03  0.17300000000E+03 0.  1.
<mgrwt>
<rscale>  2 0.20061935E+03</rscale>
<asrwt>0</asrwt>
<pdfrwt beam="1">  1       21 0.36663223E-01 0.20061935E+03</pdfrwt>
<pdfrwt beam="2">  1       21 0.38872274E-01 0.20061935E+03</pdfrwt>
<totfact> 0.45600366E+04</totfact>
</mgrwt>
</event>
<event>
 4    1  0.4441180E+000  0.1954879E+03  0.7546771E-02  0.1153603E+00
         21   -1    0    0  503  502  0.00000000000E+00  0.00000000000E+00  0.21465257589E+03  0.21465257589E+03  0.00000000000E+00 0.  1.
         21   -1    0    0  501  503 -0.00000000000E+00 -0.00000000000E+00 -0.29978034186E+03  0.29978034186E+03  0.00000000000E+00 0. -1.
          6    1    1    2  501    0 -0.89762635889E+02 -0.15139290505E+02 -0.20648108790E+03  0.28434128891E+03  0.17300000000E+03 0. -1.
         -6    1    1    2    0  502  0.89762635889E+02  0.15139290505E+02  0.12135332193E+03  0.23009162884E+03  0.17300000000E+03 0.  1.
<mgrwt>
<rscale>  2 0.19548793E+03</rscale>
<asrwt>0</asrwt>
<pdfrwt beam="1">  1       21 0.33023473E-01 0.19548793E+03</pdfrwt>
<pdfrwt beam="2">  1       21 0.46120052E-01 0.19548793E+03</pdfrwt>
<totfact> 0.39713917E+04</totfact>
</mgrwt>
</event>
<event>
 4    1  0.4441180E+000  0.2439050E+03  0.7546771E-02  0.1117218E+00
         21   -1    0    0  503  502  0.00000000000E+00  0.00000000000E+00  0.66587532398E+03  0.66587532398E+03  0.00000000000E+00 0. -1.
         21   -1    0    0  501  503 -0.00000000000E+00 -0.00000000000E+00 -0.96109687737E+02  0.96109687737E+02  0.00000000000E+00 0.  1.
          6    1    1    2  501    0 -0.16686353229E+03 -0.41439237945E+02  0.18377134620E+03  0.30538755137E+03  0.17300000000E+03 0.  1.
         -6    1    1    2    0  502  0.16686353229E+03  0.41439237945E+02  0.38599429004E+03  0.45659746035E+03  0.17300000000E+03 0. -1.
<mgrwt>
<rscale>  2 0.24390500E+03</rscale>
<asrwt>0</asrwt>
<pdfrwt beam="1">  1       21 0.10244235E+00 0.24390500E+03</pdfrwt>
<pdfrwt beam="2">  1       21 0.14786106E-01 0.24390500E+03</pdfrwt>
<totfact> 0.30375916E+04</totfact>
</mgrwt>
</event>
<event>
 4    1  0.4441180E+000  0.1778458E+03  0.7546771E-02  0.1169904E+00
         21   -1    0    0  501  502  0.00000000000E+00  0.00000000000E+00  0.31128557177E+03  0.31128557177E+03  0.00000000000E+00 0.  1.
         21   -1    0    0  502  503 -0.00000000000E+00 -0.00000000000E+00 -0.10163609472E+03  0.10163609472E+03  0.00000000000E+00 0.  1.
          6    1    1    2  501    0 -0.34963090981E+02  0.21856697103E+02  0.10139772622E+03  0.20472086318E+03  0.17300000000E+03 0.  1.
         -6    1    1    2    0  503  0.34963090981E+02 -0.21856697103E+02  0.10825175083E+03  0.20820080331E+03  0.17300000000E+03 0.  1.
<mgrwt>
<rscale>  2 0.17784581E+03</rscale>
<asrwt>0</asrwt>
<pdfrwt beam="1">  1       21 0.47890088E-01 0.17784581E+03</pdfrwt>
<pdfrwt beam="2">  1       21 0.15636322E-01 0.17784581E+03</pdfrwt>
<totfact> 0.15228794E+05</totfact>
</mgrwt>
</event>
<event>
 4    1  0.4441180E+000  0.2384233E+03  0.7546771E-02  0.1120848E+00
         21   -1    0    0  501  502  0.00000000000E+00  0.00000000000E+00  0.38245934285E+03  0.38245934285E+03  0.00000000000E+00 0. -1.
         21   -1    0    0  502  503 -0.00000000000E+00 -0.00000000000E+00 -0.17627611440E+03  0.17627611440E+03  0.00000000000E+00 0. -1.
          6    1    1    2  501    0  0.14966153225E+03  0.67216701113E+02  0.21372383279E+03  0.32019296658E+03  0.17300000000E+03 0. -1.
         -6    1    1    2    0  503 -0.14966153225E+03 -0.67216701113E+02 -0.75406043406E+01  0.23854249067E+03  0.17300000000E+03 0. -1.
<mgrwt>
<rscale>  2 0.23842328E+03</rscale>
<asrwt>0</asrwt>
<pdfrwt beam="1">  1       21 0.58839899E-01 0.23842328E+03</pdfrwt>
<pdfrwt beam="2">  1       21 0.27119402E-01 0.23842328E+03</pdfrwt>
<totfact> 0.34221411E+04</totfact>
</mgrwt>
</event>
<event>
 4    1  0.4441180E+000  0.1928195E+03  0.7546771E-02  0.1155943E+00
         21   -1    0    0  501  502  0.00000000000E+00  0.00000000000E+00  0.59888138263E+02  0.59888138263E+02  0.00000000000E+00 0.  1.
         21   -1    0    0  502  503 -0.00000000000E+00 -0.00000000000E+00 -0.13746069369E+04  0.13746069369E+04  0.00000000000E+00 0.  1.
          6    1    1    2  501    0 -0.61901408728E+02  0.58468678187E+02 -0.12622314401E+03  0.23045965551E+03  0.17300000000E+03 0.  1.
         -6    1    1    2    0  503  0.61901408728E+02 -0.58468678187E+02 -0.11884956547E+04  0.12040354197E+04  0.17300000000E+03 0.  1.
<mgrwt>
<rscale>  2 0.19281953E+03</rscale>
<asrwt>0</asrwt>
<pdfrwt beam="1">  1       21 0.92135599E-02 0.19281953E+03</pdfrwt>
<pdfrwt beam="2">  1       21 0.21147799E+00 0.19281953E+03</pdfrwt>
<totfact> 0.10647427E+04</totfact>
</mgrwt>
</event>
<event>
 4    1  0.4441180E+000  0.2327332E+03  0.7546771E-02  0.1124731E+00
         21   -1    0    0  501  502  0.00000000000E+00  0.00000000000E+00  0.13147129949E+03  0.13147129949E+03  0.00000000000E+00 0.  1.
         21   -1    0    0  502  503 -0.00000000000E+00 -0.00000000000E+00 -0.43583658643E+03  0.43583658643E+03  0.00000000000E+00 0.  1.
          6    1    1    2  501    0  0.15027057450E+03  0.40675751207E+02 -0.85831729989E+02  0.24805613915E+03  0.17300000000E+03 0.  1.
         -6    1    1    2    0  503 -0.15027057450E+03 -0.40675751207E+02 -0.21853355696E+03  0.31925174677E+03  0.17300000000E+03 0.  1.
<mgrwt>
<rscale>  2 0.23273324E+03</rscale>
<asrwt>0</asrwt>
<pdfrwt beam="1">  1       21 0.20226354E-01 0.23273324E+03</pdfrwt>
<pdfrwt beam="2">  1       21 0.67051781E-01 0.23273324E+03</pdfrwt>
<totfact> 0.45157940E+04</totfact>
</mgrwt>
</event>
<event>
 4    1  0.4441180E+000  0.2535743E+03  0.7546771E-02  0.1111067E+00
         21   -1    0    0  503  502  0.00000000000E+00  0.00000000000E+00  0.79057921364E+02  0.79057921364E+02  0.00000000000E+00 0.  1.
         21   -1    0    0  501  503 -0.00000000000E+00 -0.00000000000E+00 -0.20472469199E+04  0.20472469199E+04  0.00000000000E+00 0.  1.
          6    1    1    2  501    0 -0.59775639979E+02 -0.17549302416E+03 -0.18094744905E+04  0.18271556749E+04  0.17300000000E+03 0.  1.
         -6    1    1    2    0  502  0.59775639979E+02  0.17549302416E+03 -0.15871450806E+03  0.29914916636E+03  0.17300000000E+03 0.  1.
<mgrwt>
<rscale>  2 0.25357431E+03</rscale>
<asrwt>0</asrwt>
<pdfrwt beam="1">  1       21 0.12162757E-01 0.25357431E+03</pdfrwt>
<pdfrwt beam="2">  1       21 0.31496106E+00 0.25357431E+03</pdfrwt>
<totfact> 0.14934345E+03</totfact>
</mgrwt>
</event>
<event>
 4    1  0.4441180E+000  0.1742648E+03  0.7546771E-02  0.1173472E+00
         21   -1    0    0  501  502  0.00000000000E+00  0.00000000000E+00  0.60468068878E+02  0.60468068878E+02  0.00000000000E+00 0.  1.
         21   -1    0    0  502  503 -0.00000000000E+00 -0.00000000000E+00 -0.75787696632E+03  0.75787696632E+03  0.00000000000E+00 0.  1.
          6    1    1    2  501    0  0.14277776272E+02  0.15341082021E+02 -0.11105495188E+03  0.20664318530E+03  0.17300000000E+03 0.  1.
         -6    1    1    2    0  503 -0.14277776272E+02 -0.15341082021E+02 -0.58635394556E+03  0.61170184990E+03  0.17300000000E+03 0.  1.
<mgrwt>
<rscale>  2 0.17426475E+03</rscale>
<asrwt>0</asrwt>
<pdfrwt beam="1">  1       21 0.93027806E-02 0.17426475E+03</pdfrwt>
<pdfrwt beam="2">  1       21 0.11659645E+00 0.17426475E+03</pdfrwt>
<totfact> 0.52743398E+04</totfact>
</mgrwt>
</event>
<event>
 4    1  0.4441180E+000  0.2319748E+03  0.7546771E-02  0.1125257E+00
         21   -1    0    0  501  502  0.00000000000E+00  0.00000000000E+00  0.25138782703E+03  0.25138782703E+03  0.00000000000E+00 0. -1.
         21   -1    0    0  502  503 -0.00000000000E+00 -0.00000000000E+00 -0.38799172469E+03  0.38799172469E+03  0.00000000000E+00 0.  1.
          6    1    1    2  501    0 -0.14933823762E+02  0.15381898258E+03  0.14574341406E+03  0.27395883128E+03  0.17300000000E+03 0. -1.
         -6    1    1    2    0  503  0.14933823762E+02 -0.15381898258E+03 -0.28234731172E+03  0.36542072044E+03  0.17300000000E+03 0.  1.
<mgrwt>
<rscale>  2 0.23197478E+03</rscale>
<asrwt>0</asrwt>
<pdfrwt beam="1">  1       21 0.38675050E-01 0.23197478E+03</pdfrwt>
<pdfrwt beam="2">  1       21 0.59691035E-01 0.23197478E+03</pdfrwt>
<totfact> 0.16502452E+04</totfact>
</mgrwt>
</event>
<event>
 4    1  0.4441180E+000  0.1832955E+03  0.7546771E-02  0.1164651E+00
         21   -1    0    0  503  502  0.00000000000E+00  0.00000000000E+00  0.11981772377E+04  0.11981772377E+04  0.00000000000E+00 0. -1.
         21   -1    0    0  501  503 -0.00000000000E+00 -0.00000000000E+00 -0.28925125632E+02  0.28925125632E+02  0.00000000000E+00 0. -1.
          6    1    1    2  501    0 -0.11102688560E+02  0.59539731985E+02  0.69193649730E+03  0.71580260245E+03  0.17300000000E+03 0. -1.
         -6    1    1    2    0  502  0.11102688560E+02 -0.59539731985E+02  0.47731561478E+03  0.51129976089E+03  0.17300000000E+03 0. -1.
<mgrwt>
<rscale>  2 0.18329552E+03</rscale>
<asrwt>0</asrwt>
<pdfrwt beam="1">  1       21 0.18433492E+00 0.18329552E+03</pdfrwt>
<pdfrwt beam="2">  1       21 0.44500203E-02 0.18329552E+03</pdfrwt>
<totfact> 0.56034287E+04</totfact>
</mgrwt>
</event>
<event>
 4    1  0.4441180E+000  0.1896908E+03  0.7546771E-02  0.1158741E+00
         21   -1    0    0  501  502  0.00000000000E+00  0.00000000000E+00  0.20335935515E+03  0.20335935515E+03  0.00000000000E+00 0. -1.
         21   -1    0    0  502  503 -0.00000000000E+00 -0.00000000000E+00 -0.17808229975E+03  0.17808229975E+03  0.00000000000E+00 0. -1.
          6    1    1    2  501    0  0.22251148851E+02  0.74555210382E+02  0.27907201002E+02  0.19173263908E+03  0.17300000000E+03 0. -1.
         -6    1    1    2    0  503 -0.22251148851E+02 -0.74555210382E+02 -0.26301455999E+01  0.18970901583E+03  0.17300000000E+03 0. -1.
<mgrwt>
<rscale>  2 0.18969078E+03</rscale>
<asrwt>0</asrwt>
<pdfrwt beam="1">  1       21 0.31286054E-01 0.18969078E+03</pdfrwt>
<pdfrwt beam="2">  1       21 0.27397277E-01 0.18969078E+03</pdfrwt>
<totfact> 0.12487305E+05</totfact>
</mgrwt>
</event>
<event>
 4    1  0.4441180E+000  0.2413712E+03  0.7546771E-02  0.1118883E+00
         21   -1    0    0  501  502  0.00000000000E+00  0.00000000000E+00  0.14939488856E+03  0.14939488856E+03  0.00000000000E+00 0.  1.
         21   -1    0    0  502  503 -0.00000000000E+00 -0.00000000000E+00 -0.39866749268E+03  0.39866749268E+03  0.00000000000E+00 0.  1.
          6    1    1    2  501    0 -0.15177534072E+03  0.72768990609E+02 -0.84169508676E+02  0.25562587161E+03  0.17300000000E+03 0.  1.
         -6    1    1    2    0  503  0.15177534072E+03 -0.72768990609E+02 -0.16510309545E+03  0.29243650964E+03  0.17300000000E+03 0.  1.
<mgrwt>
<rscale>  2 0.24137125E+03</rscale>
<asrwt>0</asrwt>
<pdfrwt beam="1">  1       21 0.22983829E-01 0.24137125E+03</pdfrwt>
<pdfrwt beam="2">  1       21 0.61333461E-01 0.24137125E+03</pdfrwt>
<totfact> 0.42924034E+04</totfact>
</mgrwt>
</event>
<event>
 4    1  0.4441180E+000  0.2454047E+03  0.7546771E-02  0.1116244E+00
         21   -1    0    0  503  502  0.00000000000E+00  0.00000000000E+00  0.22228044386E+03  0.22228044386E+03  0.00000000000E+00 0. -1.
         21   -1    0    0  501  503 -0.00000000000E+00 -0.00000000000E+00 -0.27728947809E+03  0.27728947809E+03  0.00000000000E+00 0. -1.
          6    1    1    2  501    0  0.14961522161E+03  0.88936672569E+02 -0.65318793883E+02  0.25394879621E+03  0.17300000000E+03 0. -1.
         -6    1    1    2    0  502 -0.14961522161E+03 -0.88936672569E+02  0.10309759659E+02  0.24562112574E+03  0.17300000000E+03 0. -1.
<mgrwt>
<rscale>  2 0.24540466E+03</rscale>
<asrwt>0</asrwt>
<pdfrwt beam="1">  1       21 0.34196991E-01 0.24540466E+03</pdfrwt>
<pdfrwt beam="2">  1       21 0.42659920E-01 0.24540466E+03</pdfrwt>
<totfact> 0.42495950E+04</totfact>
</mgrwt>
</event>
<event>
 4    1  0.4441180E+000  0.1842560E+03  0.7546771E-02  0.1163747E+00
         21   -1    0    0  501  502  0.00000000000E+00  0.00000000000E+00  0.18305974138E+03  0.18305974138E+03  0.00000000000E+00 0.  1.
         21   -1    0    0  502  503 -0.00000000000E+00 -0.00000000000E+00 -0.29130408273E+03  0.29130408273E+03  0.00000000000E+00 0.  1.
          6    1    1    2  501    0  0.35866751839E+02 -0.52295654140E+02  0.88846729187E+02  0.20455806172E+03  0.17300000000E+03 0.  1.
         -6    1    1    2    0  503 -0.35866751839E+02  0.52295654140E+02 -0.19709107054E+03  0.26980576238E+03  0.17300000000E+03 0.  1.
<mgrwt>
<rscale>  2 0.18425596E+03</rscale>
<asrwt>0</asrwt>
<pdfrwt beam="1">  1       21 0.28163037E-01 0.18425596E+03</pdfrwt>
<pdfrwt beam="2">  1       21 0.44816012E-01 0.18425596E+03</pdfrwt>
<totfact> 0.57787903E+04</totfact>
</mgrwt>
</event>
<event>
 4    1  0.4441180E+000  0.2058605E+03  0.7546771E-02  0.1144887E+00
         21   -1    0    0  501  502  0.00000000000E+00  0.00000000000E+00  0.13620504288E+03  0.13620504288E+03  0.00000000000E+00 0. -1.
         21   -1    0    0  502  503 -0.00000000000E+00 -0.00000000000E+00 -0.38197163216E+03  0.38197163216E+03  0.00000000000E+00 0.  1.
          6    1    1    2  501    0  0.59501396177E+02  0.94388212640E+02 -0.11312024907E+02  0.20617107639E+03  0.17300000000E+03 0. -1.
         -6    1    1    2    0  503 -0.59501396177E+02 -0.94388212640E+02 -0.23445456438E+03  0.31200559865E+03  0.17300000000E+03 0.  1.
<mgrwt>
<rscale>  2 0.20586051E+03</rscale>
<asrwt>0</asrwt>
<pdfrwt beam="1">  1       21 0.20954622E-01 0.20586051E+03</pdfrwt>
<pdfrwt beam="2">  1       21 0.58764866E-01 0.20586051E+03</pdfrwt>
<totfact> 0.56955182E+04</totfact>
</mgrwt>
</event>
<event>
 4    1  0.4441180E+000  0.3729022E+03  0.7546771E-02  0.1053589E+00
         21   -1    0    0  503  502  0.00000000000E+00  0.00000000000E+00  0.25654599447E+04  0.25654599447E+04  0.00000000000E+00 0. -1.
         21   -1    0    0  501  503 -0.00000000000E+00 -0.00000000000E+00 -0.74759429318E+02  0.74759429318E+02  0.00000000000E+00 0.  1.
          6    1    1    2  501    0  0.10943802424E+03 -0.31168951279E+03  0.55312221610E+03  0.66708336771E+03  0.17300000000E+03 0.  1.
         -6    1    1    2    0  502 -0.10943802424E+03  0.31168951279E+03  0.19375782993E+04  0.19731360063E+04  0.17300000000E+03 0. -1.
<mgrwt>
<rscale>  2 0.37290218E+03</rscale>
<asrwt>0</asrwt>
<pdfrwt beam="1">  1       21 0.39468608E+00 0.37290218E+03</pdfrwt>
<pdfrwt beam="2">  1       21 0.11501453E-01 0.37290218E+03</pdfrwt>
<totfact> 0.48713727E+02</totfact>
</mgrwt>
</event>
<event>
 4    1  0.4441180E+000  0.1746501E+03  0.7546771E-02  0.1173083E+00
         21   -1    0    0  501  502  0.00000000000E+00  0.00000000000E+00  0.55038242258E+02  0.55038242258E+02  0.00000000000E+00 0. -1.
         21   -1    0    0  502  503 -0.00000000000E+00 -0.00000000000E+00 -0.68670172214E+03  0.68670172214E+03  0.00000000000E+00 0. -1.
          6    1    1    2  501    0  0.13676450302E+02  0.19662428259E+02 -0.47873681119E+03  0.50959944149E+03  0.17300000000E+03 0. -1.
         -6    1    1    2    0  503 -0.13676450302E+02 -0.19662428259E+02 -0.15292666868E+03  0.23214052290E+03  0.17300000000E+03 0. -1.
<mgrwt>
<rscale>  2 0.17465010E+03</rscale>
<asrwt>0</asrwt>
<pdfrwt beam="1">  1       21 0.84674211E-02 0.17465010E+03</pdfrwt>
<pdfrwt beam="2">  1       21 0.10564643E+00 0.17465010E+03</pdfrwt>
<totfact> 0.78886010E+04</totfact>
</mgrwt>
</event>
<event>
 4    1  0.4441180E+000  0.2793203E+03  0.7546771E-02  0.1096061E+00
         21   -1    0    0  501  502  0.00000000000E+00  0.00000000000E+00  0.12022778225E+04  0.12022778225E+04  0.00000000000E+00 0. -1.
         21   -1    0    0  502  503 -0.00000000000E+00 -0.00000000000E+00 -0.12677217747E+03  0.12677217747E+03  0.00000000000E+00 0.  1.
          6    1    1    2  501    0 -0.12888669534E+03  0.17742334868E+03  0.10020226050E+04  0.10402255168E+04  0.17300000000E+03 0. -1.
         -6    1    1    2    0  503  0.12888669534E+03 -0.17742334868E+03  0.73483040016E+02  0.28882448314E+03  0.17300000000E+03 0.  1.
<mgrwt>
<rscale>  2 0.27932029E+03</rscale>
<asrwt>0</asrwt>
<pdfrwt beam="1">  1       21 0.18496581E+00 0.27932029E+03</pdfrwt>
<pdfrwt beam="2">  1       21 0.19503413E-01 0.27932029E+03</pdfrwt>
<totfact> 0.38072878E+03</totfact>
</mgrwt>
</event>
<event>
 4    1  0.4441180E+000  0.2081611E+03  0.7546771E-02  0.1143031E+00
         21   -1    0    0  501  502  0.00000000000E+00  0.00000000000E+00  0.22781768526E+04  0.22781768526E+04  0.00000000000E+00 0.  1.
         21   -1    0    0  502  503 -0.00000000000E+00 -0.00000000000E+00 -0.71863250512E+02  0.71863250512E+02  0.00000000000E+00 0.  1.
          6    1    1    2  501    0 -0.50872355083E+02 -0.10399059385E+03  0.21107527237E+04  0.21209922444E+04  0.17300000000E+03 0.  1.
         -6    1    1    2    0  503  0.50872355083E+02  0.10399059385E+03  0.95560878427E+02  0.22904785877E+03  0.17300000000E+03 0.  1.
<mgrwt>
<rscale>  2 0.20816109E+03</rscale>
<asrwt>0</asrwt>
<pdfrwt beam="1">  1       21 0.35048869E+00 0.20816109E+03</pdfrwt>
<pdfrwt beam="2">  1       21 0.11055886E-01 0.20816109E+03</pdfrwt>
<totfact> 0.11546450E+03</totfact>
</mgrwt>
</event>
<event>
 4    1  0.4441180E+000  0.3391340E+03  0.7546771E-02  0.1067165E+00
         21   -1    0    0  503  502  0.00000000000E+00  0.00000000000E+00  0.10358154978E+03  0.10358154978E+03  0.00000000000E+00 0.  1.
         21   -1    0    0  501  503 -0.00000000000E+00 -0.00000000000E+00 -0.11103532969E+04  0.11103532969E+04  0.00000000000E+00 0. -1.
          6    1    1    2  501    0 -0.87560748130E+02 -0.27823729761E+03 -0.50425699930E+03  0.60768988781E+03  0.17300000000E+03 0.  1.
         -6    1    1    2    0  502  0.87560748130E+02  0.27823729761E+03 -0.50251474786E+03  0.60624495892E+03  0.17300000000E+03 0. -1.
<mgrwt>
<rscale>  2 0.33913401E+03</rscale>
<asrwt>0</asrwt>
<pdfrwt beam="1">  1       21 0.15935622E-01 0.33913401E+03</pdfrwt>
<pdfrwt beam="2">  1       21 0.17082360E+00 0.33913401E+03</pdfrwt>
<totfact> 0.67414687E+03</totfact>
</mgrwt>
</event>
<event>
 4    1  0.4441180E+000  0.1751232E+03  0.7546771E-02  0.1172608E+00
         21   -1    0    0  503  502  0.00000000000E+00  0.00000000000E+00  0.74523750999E+02  0.74523750999E+02  0.00000000000E+00 0.  1.
         21   -1    0    0  501  503 -0.00000000000E+00 -0.00000000000E+00 -0.72205401322E+03  0.72205401322E+03  0.00000000000E+00 0.  1.
          6    1    1    2  501    0  0.18817833027E+02 -0.19621716235E+02 -0.58496136443E+03  0.61061274182E+03  0.17300000000E+03 0.  1.
         -6    1    1    2    0  502 -0.18817833027E+02  0.19621716235E+02 -0.62568897791E+02  0.18596502241E+03  0.17300000000E+03 0.  1.
<mgrwt>
<rscale>  2 0.17512316E+03</rscale>
<asrwt>0</asrwt>
<pdfrwt beam="1">  1       21 0.11465192E-01 0.17512316E+03</pdfrwt>
<pdfrwt beam="2">  1       21 0.11108523E+00 0.17512316E+03</pdfrwt>
<totfact> 0.40987155E+04</totfact>
</mgrwt>
</event>
<event>
 4    1  0.4441180E+000  0.1734630E+03  0.7546771E-02  0.1174284E+00
         21   -1    0    0  501  502  0.00000000000E+00  0.00000000000E+00  0.29110874545E+02  0.29110874545E+02  0.00000000000E+00 0. -1.
         21   -1    0    0  502  503 -0.00000000000E+00 -0.00000000000E+00 -0.12421193647E+04  0.12421193647E+04  0.00000000000E+00 0. -1.
          6    1    1    2  501    0  0.12369203903E+02  0.27239022548E+01 -0.34608634367E+03  0.38712423603E+03  0.17300000000E+03 0. -1.
         -6    1    1    2    0  503 -0.12369203903E+02 -0.27239022548E+01 -0.86692214644E+03  0.88410600316E+03  0.17300000000E+03 0. -1.
<mgrwt>
<rscale>  2 0.17346301E+03</rscale>
<asrwt>0</asrwt>
<pdfrwt beam="1">  1       21 0.44785960E-02 0.17346301E+03</pdfrwt>
<pdfrwt beam="2">  1       21 0.19109529E+00 0.17346301E+03</pdfrwt>
<totfact> 0.50331344E+04</totfact>
</mgrwt>
</event>
<event>
 4    1  0.4441180E+000  0.3438115E+03  0.7546771E-02  0.1065184E+00
         21   -1    0    0  503  502  0.00000000000E+00  0.00000000000E+00  0.18037407141E+03  0.18037407141E+03  0.00000000000E+00 0.  1.
         21   -1    0    0  501  503 -0.00000000000E+00 -0.00000000000E+00 -0.75896092771E+03  0.75896092771E+03  0.00000000000E+00 0. -1.
          6    1    1    2  501    0  0.29711484289E+03  0.30494931664E+00 -0.46283550182E+03  0.57656137974E+03  0.17300000000E+03 0. -1.
         -6    1    1    2    0  502 -0.29711484289E+03 -0.30494931664E+00 -0.11575135448E+03  0.36277361939E+03  0.17300000000E+03 0.  1.
<mgrwt>
<rscale>  2 0.34381146E+03</rscale>
<asrwt>0</asrwt>
<pdfrwt beam="1">  1       21 0.27749857E-01 0.34381146E+03</pdfrwt>
<pdfrwt beam="2">  1       21 0.11676322E+00 0.34381146E+03</pdfrwt>
<totfact> 0.64132914E+03</totfact>
</mgrwt>
</event>
<event>
 4    1  0.4441180E+000  0.2086360E+03  0.7546771E-02  0.1142651E+00
         21   -1    0    0  501  502  0.00000000000E+00  0.00000000000E+00  0.45986491669E+03  0.45986491669E+03  0.00000000000E+00 0.  1.
         21   -1    0    0  502  503 -0.00000000000E+00 -0.00000000000E+00 -0.33451825105E+03  0.33451825105E+03  0.00000000000E+00 0.  1.
          6    1    1    2  501    0  0.74631674227E+02 -0.89610773911E+02  0.39900756600E+03  0.45026216288E+03  0.17300000000E+03 0.  1.
         -6    1    1    2    0  503 -0.74631674227E+02  0.89610773911E+02 -0.27366090035E+03  0.34412100485E+03  0.17300000000E+03 0.  1.
<mgrwt>
<rscale>  2 0.20863599E+03</rscale>
<asrwt>0</asrwt>
<pdfrwt beam="1">  1       21 0.70748448E-01 0.20863599E+03</pdfrwt>
<pdfrwt beam="2">  1       21 0.51464347E-01 0.20863599E+03</pdfrwt>
<totfact> 0.64166378E+03</totfact>
</mgrwt>
</event>
<event>
 4    1  0.4441180E+000  0.1870337E+03  0.7546771E-02  0.1161164E+00
         21   -1    0    0  501  502  0.00000000000E+00  0.00000000000E+00  0.22054405245E+04  0.22054405245E+04  0.00000000000E+00 0.  1.
         21   -1    0    0  502  503 -0.00000000000E+00 -0.00000000000E+00 -0.24754347804E+02  0.24754347804E+02  0.00000000000E+00 0.  1.
          6    1    1    2  501    0  0.69021846433E+02 -0.16987506562E+02  0.17586986241E+04  0.17686159676E+04  0.17300000000E+03 0.  1.
         -6    1    1    2    0  503 -0.69021846433E+02  0.16987506562E+02  0.42198755262E+03  0.46157890466E+03  0.17300000000E+03 0.  1.
<mgrwt>
<rscale>  2 0.18703366E+03</rscale>
<asrwt>0</asrwt>
<pdfrwt beam="1">  1       21 0.33929839E+00 0.18703366E+03</pdfrwt>
<pdfrwt beam="2">  1       21 0.38083629E-02 0.18703366E+03</pdfrwt>
<totfact> 0.86573215E+03</totfact>
</mgrwt>
</event>
<event>
 4    1  0.4441180E+000  0.1861263E+03  0.7546771E-02  0.1162002E+00
         21   -1    0    0  501  502  0.00000000000E+00  0.00000000000E+00  0.10954879589E+03  0.10954879589E+03  0.00000000000E+00 0.  1.
         21   -1    0    0  502  503 -0.00000000000E+00 -0.00000000000E+00 -0.51448709504E+03  0.51448709504E+03  0.00000000000E+00 0.  1.
          6    1    1    2  501    0 -0.98184609577E+01 -0.67952937802E+02 -0.87811036047E+01  0.18633333495E+03  0.17300000000E+03 0.  1.
         -6    1    1    2    0  503  0.98184609577E+01  0.67952937802E+02 -0.39615719554E+03  0.43770255598E+03  0.17300000000E+03 0.  1.
<mgrwt>
<rscale>  2 0.18612631E+03</rscale>
<asrwt>0</asrwt>
<pdfrwt beam="1">  1       21 0.16853661E-01 0.18612631E+03</pdfrwt>
<pdfrwt beam="2">  1       21 0.79151861E-01 0.18612631E+03</pdfrwt>
<totfact> 0.44800819E+04</totfact>
</mgrwt>
</event>
<event>
 4    1  0.4441180E+000  0.2067162E+03  0.7546771E-02  0.1144193E+00
         21   -1    0    0  501  502  0.00000000000E+00  0.00000000000E+00  0.18621812571E+03  0.18621812571E+03  0.00000000000E+00 0. -1.
         21   -1    0    0  502  503 -0.00000000000E+00 -0.00000000000E+00 -0.23150248815E+03  0.23150248815E+03  0.00000000000E+00 0. -1.
          6    1    1    2  501    0 -0.61032832354E+02  0.95276350893E+02 -0.30751326068E+01  0.20673907735E+03  0.17300000000E+03 0. -1.
         -6    1    1    2    0  503  0.61032832354E+02 -0.95276350893E+02 -0.42209229832E+02  0.21098153651E+03  0.17300000000E+03 0. -1.
<mgrwt>
<rscale>  2 0.20671621E+03</rscale>
<asrwt>0</asrwt>
<pdfrwt beam="1">  1       21 0.28648942E-01 0.20671621E+03</pdfrwt>
<pdfrwt beam="2">  1       21 0.35615767E-01 0.20671621E+03</pdfrwt>
<totfact> 0.88074816E+04</totfact>
</mgrwt>
</event>
<event>
 4    1  0.4441180E+000  0.1882986E+03  0.7546771E-02  0.1160005E+00
         21   -1    0    0  501  502  0.00000000000E+00  0.00000000000E+00  0.44016282912E+03  0.44016282912E+03  0.00000000000E+00 0. -1.
         21   -1    0    0  502  503 -0.00000000000E+00 -0.00000000000E+00 -0.18771162882E+03  0.18771162882E+03  0.00000000000E+00 0. -1.
          6    1    1    2  501    0 -0.47402136757E+02  0.57274869652E+02  0.36342364007E+03  0.40930809352E+03  0.17300000000E+03 0. -1.
         -6    1    1    2    0  503  0.47402136757E+02 -0.57274869652E+02 -0.11097243977E+03  0.21856636441E+03  0.17300000000E+03 0. -1.
<mgrwt>
<rscale>  2 0.18829863E+03</rscale>
<asrwt>0</asrwt>
<pdfrwt beam="1">  1       21 0.67717358E-01 0.18829863E+03</pdfrwt>
<pdfrwt beam="2">  1       21 0.28878712E-01 0.18829863E+03</pdfrwt>
<totfact> 0.22928559E+04</totfact>
</mgrwt>
</event>
<event>
 4    1  0.4441180E+000  0.2139351E+03  0.7546771E-02  0.1138487E+00
         21   -1    0    0  501  502  0.00000000000E+00  0.00000000000E+00  0.77751900736E+03  0.77751900736E+03  0.00000000000E+00 0. -1.
         21   -1    0    0  502  503 -0.00000000000E+00 -0.00000000000E+00 -0.86817169686E+02  0.86817169686E+02  0.00000000000E+00 0. -1.
          6    1    1    2  501    0 -0.12539174572E+03 -0.10776869490E+02  0.59057431200E+03  0.62812916570E+03  0.17300000000E+03 0. -1.
         -6    1    1    2    0  503  0.12539174572E+03  0.10776869490E+02  0.10012752567E+03  0.23620701134E+03  0.17300000000E+03 0. -1.
<mgrwt>
<rscale>  2 0.21393511E+03</rscale>
<asrwt>0</asrwt>
<pdfrwt beam="1">  1       21 0.11961830E+00 0.21393511E+03</pdfrwt>
<pdfrwt beam="2">  1       21 0.13356488E-01 0.21393511E+03</pdfrwt>
<totfact> 0.25442998E+04</totfact>
</mgrwt>
</event>
<event>
 4    1  0.4441180E+000  0.2041458E+03  0.7546771E-02  0.1146288E+00
         21   -1    0    0  503  502  0.00000000000E+00  0.00000000000E+00  0.14160881717E+04  0.14160881717E+04  0.00000000000E+00 0. -1.
         21   -1    0    0  501  503 -0.00000000000E+00 -0.00000000000E+00 -0.32849993105E+02  0.32849993105E+02  0.00000000000E+00 0. -1.
          6    1    1    2  501    0 -0.11378351214E+02  0.10778230963E+03  0.45786241940E+03  0.50131176751E+03  0.17300000000E+03 0. -1.
         -6    1    1    2    0  502  0.11378351214E+02 -0.10778230963E+03  0.92537575918E+03  0.94762639728E+03  0.17300000000E+03 0. -1.
<mgrwt>
<rscale>  2 0.20414576E+03</rscale>
<asrwt>0</asrwt>
<pdfrwt beam="1">  1       21 0.21785967E+00 0.20414576E+03</pdfrwt>
<pdfrwt beam="2">  1       21 0.50538462E-02 0.20414576E+03</pdfrwt>
<totfact> 0.27153190E+04</totfact>
</mgrwt>
</event>
<event>
 4    1  0.4441180E+000  0.2649510E+03  0.7546771E-02  0.1104205E+00
         21   -1    0    0  501  502  0.00000000000E+00  0.00000000000E+00  0.16424528764E+03  0.16424528764E+03  0.00000000000E+00 0. -1.
         21   -1    0    0  502  503 -0.00000000000E+00 -0.00000000000E+00 -0.46321362599E+03  0.46321362599E+03  0.00000000000E+00 0.  1.
          6    1    1    2  501    0  0.19976481257E+03  0.19080070764E+02 -0.62253968720E+02  0.27216646756E+03  0.17300000000E+03 0.  1.
         -6    1    1    2    0  503 -0.19976481257E+03 -0.19080070764E+02 -0.23671436963E+03  0.35529244606E+03  0.17300000000E+03 0. -1.
<mgrwt>
<rscale>  2 0.26495099E+03</rscale>
<asrwt>0</asrwt>
<pdfrwt beam="1">  1       21 0.25268506E-01 0.26495099E+03</pdfrwt>
<pdfrwt beam="2">  1       21 0.71263633E-01 0.26495099E+03</pdfrwt>
<totfact> 0.25481816E+04</totfact>
</mgrwt>
</event>
<event>
 4    1  0.4441180E+000  0.1940628E+03  0.7546771E-02  0.1154847E+00
         21   -1    0    0  501  502  0.00000000000E+00  0.00000000000E+00  0.36422222947E+03  0.36422222947E+03  0.00000000000E+00 0.  1.
         21   -1    0    0  502  503 -0.00000000000E+00 -0.00000000000E+00 -0.28298057755E+03  0.28298057755E+03  0.00000000000E+00 0.  1.
          6    1    1    2  501    0 -0.39164168571E+02 -0.78724500667E+02  0.29840866519E+03  0.35596082729E+03  0.17300000000E+03 0.  1.
         -6    1    1    2    0  503  0.39164168571E+02  0.78724500667E+02 -0.21716701327E+03  0.29124197973E+03  0.17300000000E+03 0.  1.
<mgrwt>
<rscale>  2 0.19406282E+03</rscale>
<asrwt>0</asrwt>
<pdfrwt beam="1">  1       21 0.56034189E-01 0.19406282E+03</pdfrwt>
<pdfrwt beam="2">  1       21 0.43535474E-01 0.19406282E+03</pdfrwt>
<totfact> 0.15192495E+04</totfact>
</mgrwt>
</event>
<event>
 4    1  0.4441180E+000  0.2139328E+03  0.7546771E-02  0.1138489E+00
         21   -1    0    0  503  502  0.00000000000E+00  0.00000000000E+00  0.37880353946E+03  0.37880353946E+03  0.00000000000E+00 0. -1.
         21   -1    0    0  501  503 -0.00000000000E+00 -0.00000000000E+00 -0.14899017150E+03  0.14899017150E+03  0.00000000000E+00 0.  1.
          6    1    1    2  501    0 -0.12576859235E+03 -0.45288919681E+01  0.15846387419E+00  0.21393287451E+03  0.17300000000E+03 0.  1.
         -6    1    1    2    0  502  0.12576859235E+03  0.45288919681E+01  0.22965490409E+03  0.31386083645E+03  0.17300000000E+03 0. -1.
<mgrwt>
<rscale>  2 0.21393282E+03</rscale>
<asrwt>0</asrwt>
<pdfrwt beam="1">  1       21 0.58277467E-01 0.21393282E+03</pdfrwt>
<pdfrwt beam="2">  1       21 0.22921565E-01 0.21393282E+03</pdfrwt>
<totfact> 0.48762272E+04</totfact>
</mgrwt>
</event>
<event>
 4    1  0.4441180E+000  0.1852466E+03  0.7546771E-02  0.1162820E+00
         21   -1    0    0  503  502  0.00000000000E+00  0.00000000000E+00  0.16212858915E+03  0.16212858915E+03  0.00000000000E+00 0.  1.
         21   -1    0    0  501  503 -0.00000000000E+00 -0.00000000000E+00 -0.30154884267E+03  0.30154884267E+03  0.00000000000E+00 0.  1.
          6    1    1    2  501    0  0.10787693427E+00 -0.66236545934E+02 -0.19628797902E+03  0.26989861497E+03  0.17300000000E+03 0.  1.
         -6    1    1    2    0  502 -0.10787693427E+00  0.66236545934E+02  0.56867725506E+02  0.19377881685E+03  0.17300000000E+03 0.  1.
<mgrwt>
<rscale>  2 0.18524657E+03</rscale>
<asrwt>0</asrwt>
<pdfrwt beam="1">  1       21 0.24942860E-01 0.18524657E+03</pdfrwt>
<pdfrwt beam="2">  1       21 0.46392130E-01 0.18524657E+03</pdfrwt>
<totfact> 0.67922374E+04</totfact>
</mgrwt>
</event>
<event>
 4    1  0.4441180E+000  0.1947822E+03  0.7546771E-02  0.1154217E+00
         21   -1    0    0  501  502  0.00000000000E+00  0.00000000000E+00  0.54439548603E+02  0.54439548603E+02  0.00000000000E+00 0. -1.
         21   -1    0    0  502  503 -0.00000000000E+00 -0.00000000000E+00 -0.69692445441E+03  0.69692445441E+03  0.00000000000E+00 0. -1.
          6    1    1    2  501    0  0.89412432287E+02 -0.40638636652E+01 -0.32048391429E+03  0.37503338165E+03  0.17300000000E+03 0. -1.
         -6    1    1    2    0  503 -0.89412432287E+02  0.40638636652E+01 -0.32200099152E+03  0.37633062136E+03  0.17300000000E+03 0. -1.
<mgrwt>
<rscale>  2 0.19478218E+03</rscale>
<asrwt>0</asrwt>
<pdfrwt beam="1">  1       21 0.83753156E-02 0.19478218E+03</pdfrwt>
<pdfrwt beam="2">  1       21 0.10721914E+00 0.19478218E+03</pdfrwt>
<totfact> 0.76895586E+04</totfact>
</mgrwt>
</event>
<event>
 4    1  0.4441180E+000  0.1750820E+03  0.7546771E-02  0.1172649E+00
         21   -1    0    0  501  502  0.00000000000E+00  0.00000000000E+00  0.45142825492E+03  0.45142825492E+03  0.00000000000E+00 0. -1.
         21   -1    0    0  502  503 -0.00000000000E+00 -0.00000000000E+00 -0.13421196793E+03  0.13421196793E+03  0.00000000000E+00 0. -1.
          6    1    1    2  501    0 -0.14384572093E+02  0.22754913086E+02  0.36442869393E+03  0.40430430982E+03  0.17300000000E+03 0. -1.
         -6    1    1    2    0  503  0.14384572093E+02 -0.22754913086E+02 -0.47212406938E+02  0.18133591303E+03  0.17300000000E+03 0. -1.
<mgrwt>
<rscale>  2 0.17508199E+03</rscale>
<asrwt>0</asrwt>
<pdfrwt beam="1">  1       21 0.69450500E-01 0.17508199E+03</pdfrwt>
<pdfrwt beam="2">  1       21 0.20647995E-01 0.17508199E+03</pdfrwt>
<totfact> 0.41368185E+04</totfact>
</mgrwt>
</event>
<event>
 4    1  0.4441180E+000  0.2501962E+03  0.7546771E-02  0.1113181E+00
         21   -1    0    0  501  502  0.00000000000E+00  0.00000000000E+00  0.44516828823E+02  0.44516828823E+02  0.00000000000E+00 0.  1.
         21   -1    0    0  502  503 -0.00000000000E+00 -0.00000000000E+00 -0.16360008041E+04  0.16360008041E+04  0.00000000000E+00 0.  1.
          6    1    1    2  501    0 -0.53307959790E+02 -0.17270614446E+03 -0.11106814641E+04  0.11385128307E+04  0.17300000000E+03 0. -1.
         -6    1    1    2    0  503  0.53307959790E+02  0.17270614446E+03 -0.48080251117E+03  0.54200480225E+03  0.17300000000E+03 0. -1.
<mgrwt>
<rscale>  2 0.25019622E+03</rscale>
<asrwt>0</asrwt>
<pdfrwt beam="1">  1       21 0.68487429E-02 0.25019622E+03</pdfrwt>
<pdfrwt beam="2">  1       21 0.25169243E+00 0.25019622E+03</pdfrwt>
<totfact> 0.97170414E+03</totfact>
</mgrwt>
</event>
<event>
 4    1  0.4441180E+000  0.2235925E+03  0.7546771E-02  0.1131233E+00
         21   -1    0    0  503  502  0.00000000000E+00  0.00000000000E+00  0.48489980369E+03  0.48489980369E+03  0.00000000000E+00 0.  1.
         21   -1    0    0  501  503 -0.00000000000E+00 -0.00000000000E+00 -0.12991223518E+03  0.12991223518E+03  0.00000000000E+00 0.  1.
          6    1    1    2  501    0 -0.13606220467E+03 -0.39391434128E+02  0.37841990002E+02  0.22677218707E+03  0.17300000000E+03 0.  1.
         -6    1    1    2    0  502  0.13606220467E+03  0.39391434128E+02  0.31714557851E+03  0.38803985180E+03  0.17300000000E+03 0.  1.
<mgrwt>
<rscale>  2 0.22359251E+03</rscale>
<asrwt>0</asrwt>
<pdfrwt beam="1">  1       21 0.74599969E-01 0.22359251E+03</pdfrwt>
<pdfrwt beam="2">  1       21 0.19986498E-01 0.22359251E+03</pdfrwt>
<totfact> 0.36600559E+04</totfact>
</mgrwt>
</event>
<event>
 4    1  0.4441180E+000  0.2116033E+03  0.7546771E-02  0.1140303E+00
         21   -1    0    0  501  502  0.00000000000E+00  0.00000000000E+00  0.19399477827E+03  0.19399477827E+03  0.00000000000E+00 0.  1.
         21   -1    0    0  502  503 -0.00000000000E+00 -0.00000000000E+00 -0.29785961883E+03  0.29785961883E+03  0.00000000000E+00 0.  1.
          6    1    1    2  501    0 -0.75208827023E+02 -0.95867528901E+02  0.64748175410E+02  0.22128776961E+03  0.17300000000E+03 0.  1.
         -6    1    1    2    0  503  0.75208827023E+02  0.95867528901E+02 -0.16861301597E+03  0.27056662749E+03  0.17300000000E+03 0.  1.
<mgrwt>
<rscale>  2 0.21160329E+03</rscale>
<asrwt>0</asrwt>
<pdfrwt beam="1">  1       21 0.29845351E-01 0.21160329E+03</pdfrwt>
<pdfrwt beam="2">  1       21 0.45824557E-01 0.21160329E+03</pdfrwt>
<totfact> 0.48688229E+04</totfact>
</mgrwt>
</event>
<event>
 4    1  0.4441180E+000  0.1787558E+03  0.7546771E-02  0.1169013E+00
         21   -1    0    0  501  502  0.00000000000E+00  0.00000000000E+00  0.63654047039E+02  0.63654047039E+02  0.00000000000E+00 0. -1.
         21   -1    0    0  502  503 -0.00000000000E+00 -0.00000000000E+00 -0.96016912390E+03  0.96016912390E+03  0.00000000000E+00 0. -1.
          6    1    1    2  501    0 -0.41021100185E+02 -0.18490563835E+02 -0.94635590925E+02  0.20226103599E+03  0.17300000000E+03 0. -1.
         -6    1    1    2    0  503  0.41021100185E+02  0.18490563835E+02 -0.80187948594E+03  0.82156213495E+03  0.17300000000E+03 0. -1.
<mgrwt>
<rscale>  2 0.17875579E+03</rscale>
<asrwt>0</asrwt>
<pdfrwt beam="1">  1       21 0.97929301E-02 0.17875579E+03</pdfrwt>
<pdfrwt beam="2">  1       21 0.14771833E+00 0.17875579E+03</pdfrwt>
<totfact> 0.26435222E+04</totfact>
</mgrwt>
</event>
<event>
 4    1  0.4441180E+000  0.2134871E+03  0.7546771E-02  0.1138834E+00
         21   -1    0    0  503  502  0.00000000000E+00  0.00000000000E+00  0.79652276542E+02  0.79652276542E+02  0.00000000000E+00 0. -1.
         21   -1    0    0  501  503 -0.00000000000E+00 -0.00000000000E+00 -0.59141364102E+03  0.59141364102E+03  0.00000000000E+00 0. -1.
          6    1    1    2  501    0  0.12018599395E+03  0.34685243821E+02 -0.31636405125E+03  0.38165816145E+03  0.17300000000E+03 0. -1.
         -6    1    1    2    0  502 -0.12018599395E+03 -0.34685243821E+02 -0.19539731323E+03  0.28940775611E+03  0.17300000000E+03 0. -1.
<mgrwt>
<rscale>  2 0.21348709E+03</rscale>
<asrwt>0</asrwt>
<pdfrwt beam="1">  1       21 0.12254197E-01 0.21348709E+03</pdfrwt>
<pdfrwt beam="2">  1       21 0.90986713E-01 0.21348709E+03</pdfrwt>
<totfact> 0.57318636E+04</totfact>
</mgrwt>
</event>
<event>
 4    1  0.4441180E+000  0.1825663E+03  0.7546771E-02  0.1165342E+00
         21   -1    0    0  503  502  0.00000000000E+00  0.00000000000E+00  0.52512253115E+02  0.52512253115E+02  0.00000000000E+00 0. -1.
         21   -1    0    0  501  503 -0.00000000000E+00 -0.00000000000E+00 -0.84053778810E+03  0.84053778810E+03  0.00000000000E+00 0. -1.
          6    1    1    2  501    0 -0.50995502400E+02 -0.28300465175E+02 -0.61497143187E+03  0.64149849540E+03  0.17300000000E+03 0. -1.
         -6    1    1    2    0  502  0.50995502400E+02  0.28300465175E+02 -0.17305410312E+03  0.25155154582E+03  0.17300000000E+03 0. -1.
<mgrwt>
<rscale>  2 0.18256631E+03</rscale>
<asrwt>0</asrwt>
<pdfrwt beam="1">  1       21 0.80788081E-02 0.18256631E+03</pdfrwt>
<pdfrwt beam="2">  1       21 0.12931351E+00 0.18256631E+03</pdfrwt>
<totfact> 0.51952957E+04</totfact>
</mgrwt>
</event>
<event>
 4    1  0.4441180E+000  0.2099391E+03  0.7546771E-02  0.1141614E+00
         21   -1    0    0  503  502  0.00000000000E+00  0.00000000000E+00  0.16535197616E+03  0.16535197616E+03  0.00000000000E+00 0. -1.
         21   -1    0    0  501  503 -0.00000000000E+00 -0.00000000000E+00 -0.57378271879E+03  0.57378271879E+03  0.00000000000E+00 0. -1.
          6    1    1    2  501    0 -0.43022728095E+02  0.11088036632E+03 -0.47464499903E+03  0.51900123880E+03  0.17300000000E+03 0. -1.
         -6    1    1    2    0  502  0.43022728095E+02 -0.11088036632E+03  0.66214256392E+02  0.22013345615E+03  0.17300000000E+03 0. -1.
<mgrwt>
<rscale>  2 0.20993906E+03</rscale>
<asrwt>0</asrwt>
<pdfrwt beam="1">  1       21 0.25438766E-01 0.20993906E+03</pdfrwt>
<pdfrwt beam="2">  1       21 0.88274264E-01 0.20993906E+03</pdfrwt>
<totfact> 0.15921175E+04</totfact>
</mgrwt>
</event>
<event>
 4    1  0.4441180E+000  0.2140396E+03  0.7546771E-02  0.1138406E+00
         21   -1    0    0  503  502  0.00000000000E+00  0.00000000000E+00  0.27389386225E+03  0.27389386225E+03  0.00000000000E+00 0. -1.
         21   -1    0    0  501  503 -0.00000000000E+00 -0.00000000000E+00 -0.33755162804E+03  0.33755162804E+03  0.00000000000E+00 0. -1.
          6    1    1    2  501    0 -0.11487620278E+03 -0.51840193406E+02 -0.24897271479E+03  0.32832965192E+03  0.17300000000E+03 0. -1.
         -6    1    1    2    0  502  0.11487620278E+03  0.51840193406E+02  0.18531494899E+03  0.28311583837E+03  0.17300000000E+03 0. -1.
<mgrwt>
<rscale>  2 0.21403959E+03</rscale>
<asrwt>0</asrwt>
<pdfrwt beam="1">  1       21 0.42137517E-01 0.21403959E+03</pdfrwt>
<pdfrwt beam="2">  1       21 0.51931020E-01 0.21403959E+03</pdfrwt>
<totfact> 0.18837402E+04</totfact>
</mgrwt>
</event>
<event>
 4    1  0.4441180E+000  0.1759491E+03  0.7546771E-02  0.1171782E+00
         21   -1    0    0  501  502  0.00000000000E+00  0.00000000000E+00  0.87441220563E+02  0.87441220563E+02  0.00000000000E+00 0.  1.
         21   -1    0    0  502  503 -0.00000000000E+00 -0.00000000000E+00 -0.37995189868E+03  0.37995189868E+03  0.00000000000E+00 0.  1.
          6    1    1    2  501    0  0.27269207620E+02  0.16896394078E+02 -0.85231642228E+02  0.19550583279E+03  0.17300000000E+03 0. -1.
         -6    1    1    2    0  503 -0.27269207620E+02 -0.16896394078E+02 -0.20727903589E+03  0.27188728646E+03  0.17300000000E+03 0. -1.
<mgrwt>
<rscale>  2 0.17594913E+03</rscale>
<asrwt>0</asrwt>
<pdfrwt beam="1">  1       21 0.13452495E-01 0.17594913E+03</pdfrwt>
<pdfrwt beam="2">  1       21 0.58454138E-01 0.17594913E+03</pdfrwt>
<totfact> 0.13172136E+05</totfact>
</mgrwt>
</event>
<event>
 4    1  0.4441180E+000  0.2353573E+03  0.7546771E-02  0.1122925E+00
         21   -1    0    0  503  502  0.00000000000E+00  0.00000000000E+00  0.13184615981E+04  0.13184615981E+04  0.00000000000E+00 0. -1.
         21   -1    0    0  501  503 -0.00000000000E+00 -0.00000000000E+00 -0.54994175474E+02  0.54994175474E+02  0.00000000000E+00 0. -1.
          6    1    1    2  501    0  0.14074979026E+03 -0.75190001658E+02  0.29809468762E+03  0.37980716501E+03  0.17300000000E+03 0. -1.
         -6    1    1    2    0  502 -0.14074979026E+03  0.75190001658E+02  0.96537273502E+03  0.99364860857E+03  0.17300000000E+03 0. -1.
<mgrwt>
<rscale>  2 0.23535726E+03</rscale>
<asrwt>0</asrwt>
<pdfrwt beam="1">  1       21 0.20284022E+00 0.23535726E+03</pdfrwt>
<pdfrwt beam="2">  1       21 0.84606434E-02 0.23535726E+03</pdfrwt>
<totfact> 0.13569582E+04</totfact>
</mgrwt>
</event>
<event>
 4    1  0.4441180E+000  0.1841002E+03  0.7546771E-02  0.1163893E+00
         21   -1    0    0  503  502  0.00000000000E+00  0.00000000000E+00  0.10412239666E+03  0.10412239666E+03  0.00000000000E+00 0. -1.
         21   -1    0    0  501  503 -0.00000000000E+00 -0.00000000000E+00 -0.33242922828E+03  0.33242922828E+03  0.00000000000E+00 0. -1.
          6    1    1    2  501    0 -0.17193098812E+02  0.60566410452E+02 -0.14564405024E+03  0.23474471686E+03  0.17300000000E+03 0. -1.
         -6    1    1    2    0  502  0.17193098812E+02 -0.60566410452E+02 -0.82662781382E+02  0.20180690808E+03  0.17300000000E+03 0. -1.
<mgrwt>
<rscale>  2 0.18410022E+03</rscale>
<asrwt>0</asrwt>
<pdfrwt beam="1">  1       21 0.16018830E-01 0.18410022E+03</pdfrwt>
<pdfrwt beam="2">  1       21 0.51142958E-01 0.18410022E+03</pdfrwt>
<totfact> 0.12683900E+05</totfact>
</mgrwt>
</event>
<event>
 4    1  0.4441180E+000  0.2864508E+03  0.7546771E-02  0.1092217E+00
         21   -1    0    0  501  502  0.00000000000E+00  0.00000000000E+00  0.56279303880E+03  0.56279303880E+03  0.00000000000E+00 0.  1.
         21   -1    0    0  502  503 -0.00000000000E+00 -0.00000000000E+00 -0.21052300214E+03  0.21052300214E+03  0.00000000000E+00 0. -1.
          6    1    1    2  501    0 -0.22692702040E+03  0.25083982263E+02  0.39052940291E+03  0.48432147721E+03  0.17300000000E+03 0.  1.
         -6    1    1    2    0  503  0.22692702040E+03 -0.25083982263E+02 -0.38259366244E+02  0.28899456372E+03  0.17300000000E+03 0. -1.
<mgrwt>
<rscale>  2 0.28645083E+03</rscale>
<asrwt>0</asrwt>
<pdfrwt beam="1">  1       21 0.86583544E-01 0.28645083E+03</pdfrwt>
<pdfrwt beam="2">  1       21 0.32388154E-01 0.28645083E+03</pdfrwt>
<totfact> 0.99729338E+03</totfact>
</mgrwt>
</event>
<event>
 4    1  0.4441180E+000  0.1994031E+03  0.7546771E-02  0.1150244E+00
         21   -1    0    0  503  502  0.00000000000E+00  0.00000000000E+00  0.11417895415E+04  0.11417895415E+04  0.00000000000E+00 0. -1.
         21   -1    0    0  501  503 -0.00000000000E+00 -0.00000000000E+00 -0.20628517652E+03  0.20628517652E+03  0.00000000000E+00 0. -1.
          6    1    1    2  501    0  0.45618143533E+02  0.88043174758E+02 -0.14676343936E+03  0.24759063547E+03  0.17300000000E+03 0. -1.
         -6    1    1    2    0  502 -0.45618143533E+02 -0.88043174758E+02  0.10822678043E+04  0.11004840825E+04  0.17300000000E+03 0. -1.
<mgrwt>
<rscale>  2 0.19940315E+03</rscale>
<asrwt>0</asrwt>
<pdfrwt beam="1">  1       21 0.17565993E+00 0.19940315E+03</pdfrwt>
<pdfrwt beam="2">  1       21 0.31736181E-01 0.19940315E+03</pdfrwt>
<totfact> 0.18476813E+03</totfact>
</mgrwt>
</event>
<event>
 4    1  0.4441180E+000  0.1802896E+03  0.7546771E-02  0.1167523E+00
         21   -1    0    0  501  502  0.00000000000E+00  0.00000000000E+00  0.52669678218E+03  0.52669678218E+03  0.00000000000E+00 0.  1.
         21   -1    0    0  502  503 -0.00000000000E+00 -0.00000000000E+00 -0.77179990490E+02  0.77179990490E+02  0.00000000000E+00 0.  1.
          6    1    1    2  501    0 -0.46383389613E+02 -0.20589530557E+02  0.35992227260E+03  0.40255234432E+03  0.17300000000E+03 0.  1.
         -6    1    1    2    0  503  0.46383389613E+02  0.20589530557E+02  0.89594519086E+02  0.20132442835E+03  0.17300000000E+03 0.  1.
<mgrwt>
<rscale>  2 0.18028962E+03</rscale>
<asrwt>0</asrwt>
<pdfrwt beam="1">  1       21 0.81030272E-01 0.18028962E+03</pdfrwt>
<pdfrwt beam="2">  1       21 0.11873845E-01 0.18028962E+03</pdfrwt>
<totfact> 0.80319781E+04</totfact>
</mgrwt>
</event>
<event>
 4    1  0.4441180E+000  0.3663642E+03  0.7546771E-02  0.1056092E+00
         21   -1    0    0  501  502  0.00000000000E+00  0.00000000000E+00  0.34949857430E+03  0.34949857430E+03  0.00000000000E+00 0. -1.
         21   -1    0    0  502  503 -0.00000000000E+00 -0.00000000000E+00 -0.38553046008E+03  0.38553046008E+03  0.00000000000E+00 0.  1.
          6    1    1    2  501    0  0.32170260740E+03  0.28304519880E+02 -0.40838835108E+02  0.36863331904E+03  0.17300000000E+03 0. -1.
         -6    1    1    2    0  503 -0.32170260740E+03 -0.28304519880E+02  0.48069493291E+01  0.36639571534E+03  0.17300000000E+03 0.  1.
<mgrwt>
<rscale>  2 0.36636418E+03</rscale>
<asrwt>0</asrwt>
<pdfrwt beam="1">  1       21 0.53769012E-01 0.36636418E+03</pdfrwt>
<pdfrwt beam="2">  1       21 0.59312378E-01 0.36636418E+03</pdfrwt>
<totfact> 0.79390746E+03</totfact>
</mgrwt>
</event>
<event>
 4    1  0.4441180E+000  0.2008432E+03  0.7546771E-02  0.1149030E+00
         21   -1    0    0  503  502  0.00000000000E+00  0.00000000000E+00  0.27551476444E+03  0.27551476444E+03  0.00000000000E+00 0. -1.
         21   -1    0    0  501  503 -0.00000000000E+00 -0.00000000000E+00 -0.20547427394E+03  0.20547427394E+03  0.00000000000E+00 0.  1.
          6    1    1    2  501    0  0.16770382914E+02 -0.10063664255E+03 -0.93920661608E+02  0.22171844814E+03  0.17300000000E+03 0.  1.
         -6    1    1    2    0  502 -0.16770382914E+02  0.10063664255E+03  0.16396115210E+03  0.25927059024E+03  0.17300000000E+03 0. -1.
<mgrwt>
<rscale>  2 0.20084317E+03</rscale>
<asrwt>0</asrwt>
<pdfrwt beam="1">  1       21 0.42386887E-01 0.20084317E+03</pdfrwt>
<pdfrwt beam="2">  1       21 0.31611427E-01 0.20084317E+03</pdfrwt>
<totfact> 0.51315118E+04</totfact>
</mgrwt>
</event>
<event>
 4    1  0.4441180E+000  0.2216767E+03  0.7546771E-02  0.1132639E+00
         21   -1    0    0  501  502  0.00000000000E+00  0.00000000000E+00  0.83878552113E+03  0.83878552113E+03  0.00000000000E+00 0. -1.
         21   -1    0    0  502  503 -0.00000000000E+00 -0.00000000000E+00 -0.83546062373E+02  0.83546062373E+02  0.00000000000E+00 0.  1.
          6    1    1    2  501    0 -0.13688950128E+03  0.21744680040E+02  0.62969041214E+03  0.66757065679E+03  0.17300000000E+03 0. -1.
         -6    1    1    2    0  503  0.13688950128E+03 -0.21744680040E+02  0.12554904661E+03  0.25476092671E+03  0.17300000000E+03 0.  1.
<mgrwt>
<rscale>  2 0.22167672E+03</rscale>
<asrwt>0</asrwt>
<pdfrwt beam="1">  1       21 0.12904392E+00 0.22167672E+03</pdfrwt>
<pdfrwt beam="2">  1       21 0.12853241E-01 0.22167672E+03</pdfrwt>
<totfact> 0.22443863E+04</totfact>
</mgrwt>
</event>
<event>
 4    1  0.4441180E+000  0.2330001E+03  0.7546771E-02  0.1124546E+00
         21   -1    0    0  503  502  0.00000000000E+00  0.00000000000E+00  0.29999092467E+03  0.29999092467E+03  0.00000000000E+00 0.  1.
         21   -1    0    0  501  503 -0.00000000000E+00 -0.00000000000E+00 -0.19905560911E+03  0.19905560911E+03  0.00000000000E+00 0.  1.
          6    1    1    2  501    0  0.93151453284E+02 -0.12523118581E+03  0.12568240398E+03  0.26473592469E+03  0.17300000000E+03 0.  1.
         -6    1    1    2    0  502 -0.93151453284E+02  0.12523118581E+03 -0.24747088415E+02  0.23431060909E+03  0.17300000000E+03 0.  1.
<mgrwt>
<rscale>  2 0.23300009E+03</rscale>
<asrwt>0</asrwt>
<pdfrwt beam="1">  1       21 0.46152450E-01 0.23300009E+03</pdfrwt>
<pdfrwt beam="2">  1       21 0.30623940E-01 0.23300009E+03</pdfrwt>
<totfact> 0.45179195E+04</totfact>
</mgrwt>
</event>
<event>
 4    1  0.4441180E+000  0.1812477E+03  0.7546771E-02  0.1166601E+00
         21   -1    0    0  503  502  0.00000000000E+00  0.00000000000E+00  0.12346508987E+03  0.12346508987E+03  0.00000000000E+00 0.  1.
         21   -1    0    0  501  503 -0.00000000000E+00 -0.00000000000E+00 -0.28916716038E+03  0.28916716038E+03  0.00000000000E+00 0. -1.
          6    1    1    2  501    0  0.53440242316E+02  0.81155215008E+01 -0.24545443443E+02  0.18290215959E+03  0.17300000000E+03 0.  1.
         -6    1    1    2    0  502 -0.53440242316E+02 -0.81155215008E+01 -0.14115662708E+03  0.22973009066E+03  0.17300000000E+03 0. -1.
<mgrwt>
<rscale>  2 0.18124768E+03</rscale>
<asrwt>0</asrwt>
<pdfrwt beam="1">  1       21 0.18994630E-01 0.18124768E+03</pdfrwt>
<pdfrwt beam="2">  1       21 0.44487255E-01 0.18124768E+03</pdfrwt>
<totfact> 0.12377288E+05</totfact>
</mgrwt>
</event>
<event>
 4    1  0.4441180E+000  0.2116968E+03  0.7546771E-02  0.1140229E+00
         21   -1    0    0  501  502  0.00000000000E+00  0.00000000000E+00  0.47964664933E+03  0.47964664933E+03  0.00000000000E+00 0. -1.
         21   -1    0    0  502  503 -0.00000000000E+00 -0.00000000000E+00 -0.40997590612E+03  0.40997590612E+03  0.00000000000E+00 0.  1.
          6    1    1    2  501    0  0.34025245740E+02  0.11716997374E+03  0.42568699634E+03  0.47542080197E+03  0.17300000000E+03 0. -1.
         -6    1    1    2    0  503 -0.34025245740E+02 -0.11716997374E+03 -0.35601625313E+03  0.41420175348E+03  0.17300000000E+03 0.  1.
<mgrwt>
<rscale>  2 0.21169676E+03</rscale>
<asrwt>0</asrwt>
<pdfrwt beam="1">  1       21 0.73791792E-01 0.21169676E+03</pdfrwt>
<pdfrwt beam="2">  1       21 0.63073216E-01 0.21169676E+03</pdfrwt>
<totfact> 0.37774341E+03</totfact>
</mgrwt>
</event>
<event>
 4    1  0.4441180E+000  0.1802493E+03  0.7546771E-02  0.1167562E+00
         21   -1    0    0  503  502  0.00000000000E+00  0.00000000000E+00  0.27365700106E+03  0.27365700106E+03  0.00000000000E+00 0. -1.
         21   -1    0    0  501  503 -0.00000000000E+00 -0.00000000000E+00 -0.20041692901E+03  0.20041692901E+03  0.00000000000E+00 0. -1.
          6    1    1    2  501    0  0.41410432886E+02  0.29085879011E+02 -0.11471502993E+03  0.21365708601E+03  0.17300000000E+03 0. -1.
         -6    1    1    2    0  502 -0.41410432886E+02 -0.29085879011E+02  0.18795510198E+03  0.26041684406E+03  0.17300000000E+03 0. -1.
<mgrwt>
<rscale>  2 0.18024931E+03</rscale>
<asrwt>0</asrwt>
<pdfrwt beam="1">  1       21 0.42101077E-01 0.18024931E+03</pdfrwt>
<pdfrwt beam="2">  1       21 0.30833374E-01 0.18024931E+03</pdfrwt>
<totfact> 0.55157033E+04</totfact>
</mgrwt>
</event>
<event>
 4    1  0.4441180E+000  0.2152454E+03  0.7546771E-02  0.1137478E+00
         21   -1    0    0  503  502  0.00000000000E+00  0.00000000000E+00  0.91205738845E+03  0.91205738845E+03  0.00000000000E+00 0. -1.
         21   -1    0    0  501  503 -0.00000000000E+00 -0.00000000000E+00 -0.68154689192E+02  0.68154689192E+02  0.00000000000E+00 0.  1.
          6    1    1    2  501    0 -0.11577935276E+03 -0.54742348712E+02  0.17462117340E+03  0.27716987114E+03  0.17300000000E+03 0.  1.
         -6    1    1    2    0  502  0.11577935276E+03  0.54742348712E+02  0.66928152586E+03  0.70304220651E+03  0.17300000000E+03 0. -1.
<mgrwt>
<rscale>  2 0.21524540E+03</rscale>
<asrwt>0</asrwt>
<pdfrwt beam="1">  1       21 0.14031651E+00 0.21524540E+03</pdfrwt>
<pdfrwt beam="2">  1       21 0.10485337E-01 0.21524540E+03</pdfrwt>
<totfact> 0.26178065E+04</totfact>
</mgrwt>
</event>
<event>
 4    1  0.4441180E+000  0.1916670E+03  0.7546771E-02  0.1156966E+00
         21   -1    0    0  501  502  0.00000000000E+00  0.00000000000E+00  0.62747972572E+03  0.62747972572E+03  0.00000000000E+00 0.  1.
         21   -1    0    0  502  503 -0.00000000000E+00 -0.00000000000E+00 -0.60532753886E+02  0.60532753886E+02  0.00000000000E+00 0.  1.
          6    1    1    2  501    0  0.45640763168E+02 -0.68732557066E+02  0.22114662566E+03  0.29264667041E+03  0.17300000000E+03 0.  1.
         -6    1    1    2    0  503 -0.45640763168E+02  0.68732557066E+02  0.34580034618E+03  0.39536580920E+03  0.17300000000E+03 0.  1.
<mgrwt>
<rscale>  2 0.19166701E+03</rscale>
<asrwt>0</asrwt>
<pdfrwt beam="1">  1       21 0.96535338E-01 0.19166701E+03</pdfrwt>
<pdfrwt beam="2">  1       21 0.93127318E-02 0.19166701E+03</pdfrwt>
<totfact> 0.82112473E+04</totfact>
</mgrwt>
</event>
<event>
 4    1  0.4441180E+000  0.2661447E+03  0.7546771E-02  0.1103507E+00
         21   -1    0    0  503  502  0.00000000000E+00  0.00000000000E+00  0.14544198968E+03  0.14544198968E+03  0.00000000000E+00 0. -1.
         21   -1    0    0  501  503 -0.00000000000E+00 -0.00000000000E+00 -0.51899305959E+03  0.51899305959E+03  0.00000000000E+00 0.  1.
          6    1    1    2  501    0 -0.12911489522E+03 -0.15567070063E+03 -0.10431613937E+03  0.28585814688E+03  0.17300000000E+03 0. -1.
         -6    1    1    2    0  502  0.12911489522E+03  0.15567070063E+03 -0.26923493054E+03  0.37857690239E+03  0.17300000000E+03 0.  1.
<mgrwt>
<rscale>  2 0.26614474E+03</rscale>
<asrwt>0</asrwt>
<pdfrwt beam="1">  1       21 0.22375691E-01 0.26614474E+03</pdfrwt>
<pdfrwt beam="2">  1       21 0.79845086E-01 0.26614474E+03</pdfrwt>
<totfact> 0.24873756E+04</totfact>
</mgrwt>
</event>
<event>
 4    1  0.4441180E+000  0.1933136E+03  0.7546771E-02  0.1155506E+00
         21   -1    0    0  501  502  0.00000000000E+00  0.00000000000E+00  0.10930217573E+04  0.10930217573E+04  0.00000000000E+00 0. -1.
         21   -1    0    0  502  503 -0.00000000000E+00 -0.00000000000E+00 -0.13592313888E+03  0.13592313888E+03  0.00000000000E+00 0. -1.
          6    1    1    2  501    0 -0.14558304877E+02 -0.85024699288E+02  0.10101523627E+04  0.10284833200E+04  0.17300000000E+03 0. -1.
         -6    1    1    2    0  503  0.14558304877E+02  0.85024699288E+02 -0.53053744274E+02  0.20046157615E+03  0.17300000000E+03 0. -1.
<mgrwt>
<rscale>  2 0.19331359E+03</rscale>
<asrwt>0</asrwt>
<pdfrwt beam="1">  1       21 0.16815719E+00 0.19331359E+03</pdfrwt>
<pdfrwt beam="2">  1       21 0.20911253E-01 0.19331359E+03</pdfrwt>
<totfact> 0.46665531E+03</totfact>
</mgrwt>
</event>
<event>
 4    1  0.4441180E+000  0.1769931E+03  0.7546771E-02  0.1170745E+00
         21   -1    0    0  501  502  0.00000000000E+00  0.00000000000E+00  0.47726853023E+03  0.47726853023E+03  0.00000000000E+00 0. -1.
         21   -1    0    0  502  503 -0.00000000000E+00 -0.00000000000E+00 -0.69673271128E+02  0.69673271128E+02  0.00000000000E+00 0. -1.
          6    1    1    2  501    0  0.36375794708E+02 -0.86232817728E+01  0.26961774121E+03  0.32252176020E+03  0.17300000000E+03 0. -1.
         -6    1    1    2    0  503 -0.36375794708E+02  0.86232817728E+01  0.13797751790E+03  0.22442004116E+03  0.17300000000E+03 0. -1.
<mgrwt>
<rscale>  2 0.17699311E+03</rscale>
<asrwt>0</asrwt>
<pdfrwt beam="1">  1       21 0.73425926E-01 0.17699311E+03</pdfrwt>
<pdfrwt beam="2">  1       21 0.10718965E-01 0.17699311E+03</pdfrwt>
<totfact> 0.12030293E+05</totfact>
</mgrwt>
</event>
<event>
 4    1  0.4441180E+000  0.1853578E+03  0.7546771E-02  0.1162716E+00
         21   -1    0    0  501  502  0.00000000000E+00  0.00000000000E+00  0.64116709501E+03  0.64116709501E+03  0.00000000000E+00 0.  1.
         21   -1    0    0  502  503 -0.00000000000E+00 -0.00000000000E+00 -0.11753988867E+03  0.11753988867E+03  0.00000000000E+00 0.  1.
          6    1    1    2  501    0  0.22484946778E+02  0.62633497433E+02  0.54163775932E+03  0.57247619178E+03  0.17300000000E+03 0.  1.
         -6    1    1    2    0  503 -0.22484946778E+02 -0.62633497433E+02 -0.18010552988E+02  0.18623079190E+03  0.17300000000E+03 0.  1.
<mgrwt>
<rscale>  2 0.18535784E+03</rscale>
<asrwt>0</asrwt>
<pdfrwt beam="1">  1       21 0.98641090E-01 0.18535784E+03</pdfrwt>
<pdfrwt beam="2">  1       21 0.18083060E-01 0.18535784E+03</pdfrwt>
<totfact> 0.23707274E+04</totfact>
</mgrwt>
</event>
<event>
 4    1  0.4441180E+000  0.2117968E+03  0.7546771E-02  0.1140151E+00
         21   -1    0    0  503  502  0.00000000000E+00  0.00000000000E+00  0.26075505464E+03  0.26075505464E+03  0.00000000000E+00 0.  1.
         21   -1    0    0  501  503 -0.00000000000E+00 -0.00000000000E+00 -0.17296121105E+03  0.17296121105E+03  0.00000000000E+00 0.  1.
          6    1    1    2  501    0  0.11431329925E+03  0.43143523872E+02  0.27991517720E+02  0.21363852439E+03  0.17300000000E+03 0.  1.
         -6    1    1    2    0  502 -0.11431329925E+03 -0.43143523872E+02  0.59802325865E+02  0.22007774130E+03  0.17300000000E+03 0.  1.
<mgrwt>
<rscale>  2 0.21179682E+03</rscale>
<asrwt>0</asrwt>
<pdfrwt beam="1">  1       21 0.40116162E-01 0.21179682E+03</pdfrwt>
<pdfrwt beam="2">  1       21 0.26609417E-01 0.21179682E+03</pdfrwt>
<totfact> 0.79834981E+04</totfact>
</mgrwt>
</event>
<event>
 4    1  0.4441180E+000  0.2031733E+03  0.7546771E-02  0.1147089E+00
         21   -1    0    0  501  502  0.00000000000E+00  0.00000000000E+00  0.41821637346E+02  0.41821637346E+02  0.00000000000E+00 0.  1.
         21   -1    0    0  502  503 -0.00000000000E+00 -0.00000000000E+00 -0.99388211615E+03  0.99388211615E+03  0.00000000000E+00 0. -1.
          6    1    1    2  501    0  0.40645130359E+02  0.98480287127E+02 -0.43304574091E+03  0.47833879970E+03  0.17300000000E+03 0.  1.
         -6    1    1    2    0  503 -0.40645130359E+02 -0.98480287127E+02 -0.51901473789E+03  0.55736495380E+03  0.17300000000E+03 0.  1.
<mgrwt>
<rscale>  2 0.20317331E+03</rscale>
<asrwt>0</asrwt>
<pdfrwt beam="1">  1       21 0.64340989E-02 0.20317331E+03</pdfrwt>
<pdfrwt beam="2">  1       21 0.15290492E+00 0.20317331E+03</pdfrwt>
<totfact> 0.49401854E+04</totfact>
</mgrwt>
</event>
<event>
 4    1  0.4441180E+000  0.2274183E+03  0.7546771E-02  0.1128470E+00
         21   -1    0    0  503  502  0.00000000000E+00  0.00000000000E+00  0.17779346781E+03  0.17779346781E+03  0.00000000000E+00 0.  1.
         21   -1    0    0  501  503 -0.00000000000E+00 -0.00000000000E+00 -0.52344857624E+03  0.52344857624E+03  0.00000000000E+00 0.  1.
          6    1    1    2  501    0  0.81060571124E+02  0.12336631840E+03 -0.40653003557E+03  0.46581727590E+03  0.17300000000E+03 0.  1.
         -6    1    1    2    0  502 -0.81060571124E+02 -0.12336631840E+03  0.60874927145E+02  0.23542476815E+03  0.17300000000E+03 0.  1.
<mgrwt>
<rscale>  2 0.22741826E+03</rscale>
<asrwt>0</asrwt>
<pdfrwt beam="1">  1       21 0.27352841E-01 0.22741826E+03</pdfrwt>
<pdfrwt beam="2">  1       21 0.80530550E-01 0.22741826E+03</pdfrwt>
<totfact> 0.16913746E+04</totfact>
</mgrwt>
</event>
<event>
 4    1  0.4441180E+000  0.1850046E+03  0.7546771E-02  0.1163046E+00
         21   -1    0    0  503  502  0.00000000000E+00  0.00000000000E+00  0.62914163388E+02  0.62914163388E+02  0.00000000000E+00 0.  1.
         21   -1    0    0  501  503 -0.00000000000E+00 -0.00000000000E+00 -0.10722660992E+04  0.10722660992E+04  0.00000000000E+00 0.  1.
          6    1    1    2  501    0 -0.49108608915E+02 -0.43428656185E+02 -0.90305895115E+03  0.92181460874E+03  0.17300000000E+03 0.  1.
         -6    1    1    2    0  502  0.49108608915E+02  0.43428656185E+02 -0.10629298465E+03  0.21336565383E+03  0.17300000000E+03 0.  1.
<mgrwt>
<rscale>  2 0.18500460E+03</rscale>
<asrwt>0</asrwt>
<pdfrwt beam="1">  1       21 0.96791034E-02 0.18500460E+03</pdfrwt>
<pdfrwt beam="2">  1       21 0.16496399E+00 0.18500460E+03</pdfrwt>
<totfact> 0.20020721E+04</totfact>
</mgrwt>
</event>
<event>
 4    1  0.4441180E+000  0.2149895E+03  0.7546771E-02  0.1137675E+00
         21   -1    0    0  503  502  0.00000000000E+00  0.00000000000E+00  0.44169108982E+03  0.44169108982E+03  0.00000000000E+00 0. -1.
         21   -1    0    0  501  503 -0.00000000000E+00 -0.00000000000E+00 -0.11162752312E+03  0.11162752312E+03  0.00000000000E+00 0. -1.
          6    1    1    2  501    0  0.10230326130E+03 -0.76325196064E+02  0.95835155650E+02  0.23538239077E+03  0.17300000000E+03 0. -1.
         -6    1    1    2    0  502 -0.10230326130E+03  0.76325196064E+02  0.23422841104E+03  0.31793622217E+03  0.17300000000E+03 0. -1.
<mgrwt>
<rscale>  2 0.21498952E+03</rscale>
<asrwt>0</asrwt>
<pdfrwt beam="1">  1       21 0.67952474E-01 0.21498952E+03</pdfrwt>
<pdfrwt beam="2">  1       21 0.17173465E-01 0.21498952E+03</pdfrwt>
<totfact> 0.59938453E+04</totfact>
</mgrwt>
</event>
<event>
 4    1  0.4441180E+000  0.2026230E+03  0.7546771E-02  0.1147545E+00
         21   -1    0    0  503  502  0.00000000000E+00  0.00000000000E+00  0.21332008598E+04  0.21332008598E+04  0.00000000000E+00 0.  1.
         21   -1    0    0  501  503 -0.00000000000E+00 -0.00000000000E+00 -0.19992487098E+02  0.19992487098E+02  0.00000000000E+00 0.  1.
          6    1    1    2  501    0  0.99884958490E+02  0.33913038824E+02  0.84860555248E+03  0.87246059099E+03  0.17300000000E+03 0.  1.
         -6    1    1    2    0  502 -0.99884958490E+02 -0.33913038824E+02  0.12646028202E+04  0.12807327559E+04  0.17300000000E+03 0.  1.
<mgrwt>
<rscale>  2 0.20262305E+03</rscale>
<asrwt>0</asrwt>
<pdfrwt beam="1">  1       21 0.32818457E+00 0.20262305E+03</pdfrwt>
<pdfrwt beam="2">  1       21 0.30757689E-02 0.20262305E+03</pdfrwt>
<totfact> 0.14092906E+04</totfact>
</mgrwt>
</event>
<event>
 4    1  0.4441180E+000  0.2368957E+03  0.7546771E-02  0.1121878E+00
         21   -1    0    0  503  502  0.00000000000E+00  0.00000000000E+00  0.14581243748E+03  0.14581243748E+03  0.00000000000E+00 0. -1.
         21   -1    0    0  501  503 -0.00000000000E+00 -0.00000000000E+00 -0.75240151544E+03  0.75240151544E+03  0.00000000000E+00 0.  1.
          6    1    1    2  501    0  0.12814871022E+03  0.98835591211E+02 -0.61717862133E+03  0.66108170195E+03  0.17300000000E+03 0.  1.
         -6    1    1    2    0  502 -0.12814871022E+03 -0.98835591211E+02  0.10589543367E+02  0.23713225097E+03  0.17300000000E+03 0. -1.
<mgrwt>
<rscale>  2 0.23689569E+03</rscale>
<asrwt>0</asrwt>
<pdfrwt beam="1">  1       21 0.22432683E-01 0.23689569E+03</pdfrwt>
<pdfrwt beam="2">  1       21 0.11575408E+00 0.23689569E+03</pdfrwt>
<totfact> 0.10424697E+04</totfact>
</mgrwt>
</event>
<event>
 4    1  0.4441180E+000  0.1898496E+03  0.7546771E-02  0.1158597E+00
         21   -1    0    0  503  502  0.00000000000E+00  0.00000000000E+00  0.68494464358E+02  0.68494464358E+02  0.00000000000E+00 0.  1.
         21   -1    0    0  501  503 -0.00000000000E+00 -0.00000000000E+00 -0.63065714019E+03  0.63065714019E+03  0.00000000000E+00 0.  1.
          6    1    1    2  501    0 -0.78147470746E+02  0.26193838885E+01 -0.42334053258E+03  0.46396130753E+03  0.17300000000E+03 0.  1.
         -6    1    1    2    0  502  0.78147470746E+02 -0.26193838885E+01 -0.13882214325E+03  0.23519029702E+03  0.17300000000E+03 0.  1.
<mgrwt>
<rscale>  2 0.18984965E+03</rscale>
<asrwt>0</asrwt>
<pdfrwt beam="1">  1       21 0.10537610E-01 0.18984965E+03</pdfrwt>
<pdfrwt beam="2">  1       21 0.97024172E-01 0.18984965E+03</pdfrwt>
<totfact> 0.65293803E+04</totfact>
</mgrwt>
</event>
<event>
 4    1  0.4441180E+000  0.1910528E+03  0.7546771E-02  0.1157515E+00
         21   -1    0    0  503  502  0.00000000000E+00  0.00000000000E+00  0.45014935575E+03  0.45014935575E+03  0.00000000000E+00 0.  1.
         21   -1    0    0  501  503 -0.00000000000E+00 -0.00000000000E+00 -0.11327209789E+03  0.11327209789E+03  0.00000000000E+00 0.  1.
          6    1    1    2  501    0  0.71356706360E+02 -0.38475802396E+02  0.18272931812E+02  0.19192463872E+03  0.17300000000E+03 0.  1.
         -6    1    1    2    0  502 -0.71356706360E+02  0.38475802396E+02  0.31860432605E+03  0.37149681491E+03  0.17300000000E+03 0.  1.
<mgrwt>
<rscale>  2 0.19105279E+03</rscale>
<asrwt>0</asrwt>
<pdfrwt beam="1">  1       21 0.69253746E-01 0.19105279E+03</pdfrwt>
<pdfrwt beam="2">  1       21 0.17426477E-01 0.19105279E+03</pdfrwt>
<totfact> 0.56589749E+04</totfact>
</mgrwt>
</event>
<event>
 4    1  0.4441180E+000  0.2547887E+03  0.7546771E-02  0.1110315E+00
         21   -1    0    0  503  502  0.00000000000E+00  0.00000000000E+00  0.23931057770E+03  0.23931057770E+03  0.00000000000E+00 0.  1.
         21   -1    0    0  501  503 -0.00000000000E+00 -0.00000000000E+00 -0.27364618293E+03  0.27364618293E+03  0.00000000000E+00 0. -1.
          6    1    1    2  501    0  0.18245898631E+03 -0.41194824300E+02  0.67422865611E+01  0.25487791914E+03  0.17300000000E+03 0.  1.
         -6    1    1    2    0  502 -0.18245898631E+03  0.41194824300E+02 -0.41077891791E+02  0.25807884150E+03  0.17300000000E+03 0. -1.
<mgrwt>
<rscale>  2 0.25478873E+03</rscale>
<asrwt>0</asrwt>
<pdfrwt beam="1">  1       21 0.36817012E-01 0.25478873E+03</pdfrwt>
<pdfrwt beam="2">  1       21 0.42099413E-01 0.25478873E+03</pdfrwt>
<totfact> 0.37522142E+04</totfact>
</mgrwt>
</event>
<event>
 4    1  0.4441180E+000  0.2070286E+03  0.7546771E-02  0.1143941E+00
         21   -1    0    0  501  502  0.00000000000E+00  0.00000000000E+00  0.11143287960E+04  0.11143287960E+04  0.00000000000E+00 0.  1.
         21   -1    0    0  502  503 -0.00000000000E+00 -0.00000000000E+00 -0.40272117541E+02  0.40272117541E+02  0.00000000000E+00 0. -1.
          6    1    1    2  501    0  0.98684333757E+02 -0.56508948780E+02  0.65937346734E+03  0.69111086553E+03  0.17300000000E+03 0. -1.
         -6    1    1    2    0  503 -0.98684333757E+02  0.56508948780E+02  0.41468321112E+03  0.46349004801E+03  0.17300000000E+03 0. -1.
<mgrwt>
<rscale>  2 0.20702864E+03</rscale>
<asrwt>0</asrwt>
<pdfrwt beam="1">  1       21 0.17143518E+00 0.20702864E+03</pdfrwt>
<pdfrwt beam="2">  1       21 0.61957112E-02 0.20702864E+03</pdfrwt>
<totfact> 0.38561607E+04</totfact>
</mgrwt>
</event>
<event>
 4    1  0.4441180E+000  0.2263150E+03  0.7546771E-02  0.1129261E+00
         21   -1    0    0  501  502  0.00000000000E+00  0.00000000000E+00  0.11291131483E+03  0.11291131483E+03  0.00000000000E+00 0.  1.
         21   -1    0    0  502  503 -0.00000000000E+00 -0.00000000000E+00 -0.64915827059E+03  0.64915827059E+03  0.00000000000E+00 0.  1.
          6    1    1    2  501    0  0.22772633946E+02 -0.14412106424E+03 -0.58997141907E+02  0.23387846581E+03  0.17300000000E+03 0.  1.
         -6    1    1    2    0  503 -0.22772633946E+02  0.14412106424E+03 -0.47724981385E+03  0.52819111961E+03  0.17300000000E+03 0.  1.
<mgrwt>
<rscale>  2 0.22631499E+03</rscale>
<asrwt>0</asrwt>
<pdfrwt beam="1">  1       21 0.17370971E-01 0.22631499E+03</pdfrwt>
<pdfrwt beam="2">  1       21 0.99870504E-01 0.22631499E+03</pdfrwt>
<totfact> 0.24217768E+04</totfact>
</mgrwt>
</event>
<event>
 4    1  0.4441180E+000  0.2071788E+03  0.7546771E-02  0.1143820E+00
         21   -1    0    0  501  502  0.00000000000E+00  0.00000000000E+00  0.15543589153E+03  0.15543589153E+03  0.00000000000E+00 0.  1.
         21   -1    0    0  502  503 -0.00000000000E+00 -0.00000000000E+00 -0.27741188418E+03  0.27741188418E+03  0.00000000000E+00 0. -1.
          6    1    1    2  501    0  0.11364186104E+03  0.89214145390E+01 -0.46370653345E+02  0.21230473784E+03  0.17300000000E+03 0.  1.
         -6    1    1    2    0  503 -0.11364186104E+03 -0.89214145390E+01 -0.75605339306E+02  0.22054303786E+03  0.17300000000E+03 0.  1.
<mgrwt>
<rscale>  2 0.20717882E+03</rscale>
<asrwt>0</asrwt>
<pdfrwt beam="1">  1       21 0.23913214E-01 0.20717882E+03</pdfrwt>
<pdfrwt beam="2">  1       21 0.42678751E-01 0.20717882E+03</pdfrwt>
<totfact> 0.86527865E+04</totfact>
</mgrwt>
</event>
<event>
 4    1  0.4441180E+000  0.1832591E+03  0.7546771E-02  0.1164686E+00
         21   -1    0    0  503  502  0.00000000000E+00  0.00000000000E+00  0.75756980581E+02  0.75756980581E+02  0.00000000000E+00 0. -1.
         21   -1    0    0  501  503 -0.00000000000E+00 -0.00000000000E+00 -0.55991615239E+03  0.55991615239E+03  0.00000000000E+00 0. -1.
          6    1    1    2  501    0 -0.40504192397E+02 -0.44880892543E+02 -0.38712422860E+03  0.42830952883E+03  0.17300000000E+03 0. -1.
         -6    1    1    2    0  502  0.40504192397E+02  0.44880892543E+02 -0.97034943201E+02  0.20736360413E+03  0.17300000000E+03 0. -1.
<mgrwt>
<rscale>  2 0.18325906E+03</rscale>
<asrwt>0</asrwt>
<pdfrwt beam="1">  1       21 0.11654920E-01 0.18325906E+03</pdfrwt>
<pdfrwt beam="2">  1       21 0.86140944E-01 0.18325906E+03</pdfrwt>
<totfact> 0.72148163E+04</totfact>
</mgrwt>
</event>
<event>
 4    1  0.4441180E+000  0.2098310E+03  0.7546771E-02  0.1141700E+00
         21   -1    0    0  503  502  0.00000000000E+00  0.00000000000E+00  0.17730446891E+04  0.17730446891E+04  0.00000000000E+00 0. -1.
         21   -1    0    0  501  503 -0.00000000000E+00 -0.00000000000E+00 -0.46093078514E+02  0.46093078514E+02  0.00000000000E+00 0. -1.
          6    1    1    2  501    0  0.10752397469E+03 -0.50384971355E+02  0.24573577206E+03  0.32313328541E+03  0.17300000000E+03 0. -1.
         -6    1    1    2    0  502 -0.10752397469E+03  0.50384971355E+02  0.14812158386E+04  0.14960044822E+04  0.17300000000E+03 0. -1.
<mgrwt>
<rscale>  2 0.20983100E+03</rscale>
<asrwt>0</asrwt>
<pdfrwt beam="1">  1       21 0.27277605E+00 0.20983100E+03</pdfrwt>
<pdfrwt beam="2">  1       21 0.70912442E-02 0.20983100E+03</pdfrwt>
<totfact> 0.71206510E+03</totfact>
</mgrwt>
</event>
<event>
 4    1  0.4441180E+000  0.2300661E+03  0.7546771E-02  0.1126593E+00
         21   -1    0    0  501  502  0.00000000000E+00  0.00000000000E+00  0.24704639727E+04  0.24704639727E+04  0.00000000000E+00 0.  1.
         21   -1    0    0  502  503 -0.00000000000E+00 -0.00000000000E+00 -0.73882168958E+02  0.73882168958E+02  0.00000000000E+00 0. -1.
          6    1    1    2  501    0 -0.61281731994E+02  0.13872983709E+03  0.22702484455E+04  0.22818760752E+04  0.17300000000E+03 0.  1.
         -6    1    1    2    0  503  0.61281731994E+02 -0.13872983709E+03  0.12633335826E+03  0.26247006645E+03  0.17300000000E+03 0. -1.
<mgrwt>
<rscale>  2 0.23006612E+03</rscale>
<asrwt>0</asrwt>
<pdfrwt beam="1">  1       21 0.38007132E+00 0.23006612E+03</pdfrwt>
<pdfrwt beam="2">  1       21 0.11366489E-01 0.23006612E+03</pdfrwt>
<totfact> 0.70779032E+02</totfact>
</mgrwt>
</event>
<event>
 4    1  0.4441180E+000  0.1753898E+03  0.7546771E-02  0.1172341E+00
         21   -1    0    0  503  502  0.00000000000E+00  0.00000000000E+00  0.18526627440E+03  0.18526627440E+03  0.00000000000E+00 0. -1.
         21   -1    0    0  501  503 -0.00000000000E+00 -0.00000000000E+00 -0.17033421672E+03  0.17033421672E+03  0.00000000000E+00 0. -1.
          6    1    1    2  501    0 -0.24665424641E+02 -0.14973123714E+02  0.35697455703E+02  0.17898571437E+03  0.17300000000E+03 0. -1.
         -6    1    1    2    0  502  0.24665424641E+02  0.14973123714E+02 -0.20765398023E+02  0.17661477674E+03  0.17300000000E+03 0. -1.
<mgrwt>
<rscale>  2 0.17538979E+03</rscale>
<asrwt>0</asrwt>
<pdfrwt beam="1">  1       21 0.28502504E-01 0.17538979E+03</pdfrwt>
<pdfrwt beam="2">  1       21 0.26205264E-01 0.17538979E+03</pdfrwt>
<totfact> 0.16380856E+05</totfact>
</mgrwt>
</event>
<event>
 4    1  0.4441180E+000  0.1730149E+03  0.7546771E-02  0.1174740E+00
         21   -1    0    0  501  502  0.00000000000E+00  0.00000000000E+00  0.10799103343E+04  0.10799103343E+04  0.00000000000E+00 0. -1.
         21   -1    0    0  502  503 -0.00000000000E+00 -0.00000000000E+00 -0.39598475475E+02  0.39598475475E+02  0.00000000000E+00 0. -1.
          6    1    1    2  501    0  0.21586371038E+01 -0.70834230039E+00  0.82674366042E+03  0.84465332623E+03  0.17300000000E+03 0. -1.
         -6    1    1    2    0  503 -0.21586371038E+01  0.70834230039E+00  0.21356819838E+03  0.27485548352E+03  0.17300000000E+03 0. -1.
<mgrwt>
<rscale>  2 0.17301492E+03</rscale>
<asrwt>0</asrwt>
<pdfrwt beam="1">  1       21 0.16614003E+00 0.17301492E+03</pdfrwt>
<pdfrwt beam="2">  1       21 0.60920740E-02 0.17301492E+03</pdfrwt>
<totfact> 0.44184331E+04</totfact>
</mgrwt>
</event>
<event>
 4    1  0.4441180E+000  0.1831029E+03  0.7546771E-02  0.1164833E+00
         21   -1    0    0  501  502  0.00000000000E+00  0.00000000000E+00  0.34428089777E+03  0.34428089777E+03  0.00000000000E+00 0.  1.
         21   -1    0    0  502  503 -0.00000000000E+00 -0.00000000000E+00 -0.13848448445E+03  0.13848448445E+03  0.00000000000E+00 0.  1.
          6    1    1    2  501    0  0.59870415910E+02  0.36352370307E+01  0.23440277539E+03  0.29744132658E+03  0.17300000000E+03 0.  1.
         -6    1    1    2    0  503 -0.59870415910E+02 -0.36352370307E+01 -0.28606362070E+02  0.18532405564E+03  0.17300000000E+03 0.  1.
<mgrwt>
<rscale>  2 0.18310293E+03</rscale>
<asrwt>0</asrwt>
<pdfrwt beam="1">  1       21 0.52966292E-01 0.18310293E+03</pdfrwt>
<pdfrwt beam="2">  1       21 0.21305305E-01 0.18310293E+03</pdfrwt>
<totfact> 0.69530832E+04</totfact>
</mgrwt>
</event>
<event>
 4    1  0.4441180E+000  0.2211358E+03  0.7546771E-02  0.1133039E+00
         21   -1    0    0  503  502  0.00000000000E+00  0.00000000000E+00  0.14865032292E+03  0.14865032292E+03  0.00000000000E+00 0. -1.
         21   -1    0    0  501  503 -0.00000000000E+00 -0.00000000000E+00 -0.32963020214E+03  0.32963020214E+03  0.00000000000E+00 0. -1.
          6    1    1    2  501    0  0.13720653778E+03 -0.12099084383E+02 -0.79761764006E+02  0.23508075389E+03  0.17300000000E+03 0.  1.
         -6    1    1    2    0  502 -0.13720653778E+03  0.12099084383E+02 -0.10121811521E+03  0.24319977117E+03  0.17300000000E+03 0.  1.
<mgrwt>
<rscale>  2 0.22113575E+03</rscale>
<asrwt>0</asrwt>
<pdfrwt beam="1">  1       21 0.22869281E-01 0.22113575E+03</pdfrwt>
<pdfrwt beam="2">  1       21 0.50712338E-01 0.22113575E+03</pdfrwt>
<totfact> 0.65542678E+04</totfact>
</mgrwt>
</event>
<event>
 4    1  0.4441180E+000  0.2556112E+03  0.7546771E-02  0.1109809E+00
         21   -1    0    0  503  502  0.00000000000E+00  0.00000000000E+00  0.56737478453E+03  0.56737478453E+03  0.00000000000E+00 0. -1.
         21   -1    0    0  501  503 -0.00000000000E+00 -0.00000000000E+00 -0.14570011891E+03  0.14570011891E+03  0.00000000000E+00 0.  1.
          6    1    1    2  501    0  0.16250298193E+03 -0.94872811573E+02  0.47594826243E+02  0.26000449418E+03  0.17300000000E+03 0.  1.
         -6    1    1    2    0  502 -0.16250298193E+03  0.94872811573E+02  0.37407983938E+03  0.45307040925E+03  0.17300000000E+03 0. -1.
<mgrwt>
<rscale>  2 0.25561117E+03</rscale>
<asrwt>0</asrwt>
<pdfrwt beam="1">  1       21 0.87288427E-01 0.25561117E+03</pdfrwt>
<pdfrwt beam="2">  1       21 0.22415403E-01 0.25561117E+03</pdfrwt>
<totfact> 0.20295676E+04</totfact>
</mgrwt>
</event>
<event>
 4    1  0.4441180E+000  0.1866729E+03  0.7546771E-02  0.1161497E+00
         21   -1    0    0  501  502  0.00000000000E+00  0.00000000000E+00  0.10379994633E+03  0.10379994633E+03  0.00000000000E+00 0.  1.
         21   -1    0    0  502  503 -0.00000000000E+00 -0.00000000000E+00 -0.49216155518E+03  0.49216155518E+03  0.00000000000E+00 0.  1.
          6    1    1    2  501    0 -0.67207618581E+02 -0.20023142212E+02 -0.26175561385E+02  0.18849920486E+03  0.17300000000E+03 0. -1.
         -6    1    1    2    0  503  0.67207618581E+02  0.20023142212E+02 -0.36218604746E+03  0.40746229665E+03  0.17300000000E+03 0. -1.
<mgrwt>
<rscale>  2 0.18667295E+03</rscale>
<asrwt>0</asrwt>
<pdfrwt beam="1">  1       21 0.15969223E-01 0.18667295E+03</pdfrwt>
<pdfrwt beam="2">  1       21 0.75717162E-01 0.18667295E+03</pdfrwt>
<totfact> 0.54615136E+04</totfact>
</mgrwt>
</event>
<event>
 4    1  0.4441180E+000  0.1835849E+03  0.7546771E-02  0.1164378E+00
         21   -1    0    0  501  502  0.00000000000E+00  0.00000000000E+00  0.59934832857E+03  0.59934832857E+03  0.00000000000E+00 0. -1.
         21   -1    0    0  502  503 -0.00000000000E+00 -0.00000000000E+00 -0.14902493205E+03  0.14902493205E+03  0.00000000000E+00 0.  1.
          6    1    1    2  501    0 -0.53861916738E+02  0.29551612012E+02  0.52042735463E+03  0.55185870954E+03  0.17300000000E+03 0. -1.
         -6    1    1    2    0  503  0.53861916738E+02 -0.29551612012E+02 -0.70103958102E+02  0.19651455109E+03  0.17300000000E+03 0.  1.
<mgrwt>
<rscale>  2 0.18358487E+03</rscale>
<asrwt>0</asrwt>
<pdfrwt beam="1">  1       21 0.92207434E-01 0.18358487E+03</pdfrwt>
<pdfrwt beam="2">  1       21 0.22926913E-01 0.18358487E+03</pdfrwt>
<totfact> 0.17834034E+04</totfact>
</mgrwt>
</event>
<event>
 4    1  0.4441180E+000  0.2410228E+03  0.7546771E-02  0.1119113E+00
         21   -1    0    0  503  502  0.00000000000E+00  0.00000000000E+00  0.13440907143E+04  0.13440907143E+04  0.00000000000E+00 0. -1.
         21   -1    0    0  501  503 -0.00000000000E+00 -0.00000000000E+00 -0.95193802989E+02  0.95193802989E+02  0.00000000000E+00 0. -1.
          6    1    1    2  501    0 -0.88418706642E+02 -0.14263632432E+03  0.92703521543E+02  0.25823619345E+03  0.17300000000E+03 0. -1.
         -6    1    1    2    0  502  0.88418706642E+02  0.14263632432E+03  0.11561933898E+04  0.11810483238E+04  0.17300000000E+03 0. -1.
<mgrwt>
<rscale>  2 0.24102280E+03</rscale>
<asrwt>0</asrwt>
<pdfrwt beam="1">  1       21 0.20678317E+00 0.24102280E+03</pdfrwt>
<pdfrwt beam="2">  1       21 0.14645201E-01 0.24102280E+03</pdfrwt>
<totfact> 0.47774620E+03</totfact>
</mgrwt>
</event>
<event>
 4    1  0.4441180E+000  0.2323204E+03  0.7546771E-02  0.1125017E+00
         21   -1    0    0  501  502  0.00000000000E+00  0.00000000000E+00  0.20509493321E+03  0.20509493321E+03  0.00000000000E+00 0.  1.
         21   -1    0    0  502  503 -0.00000000000E+00 -0.00000000000E+00 -0.36240233155E+03  0.36240233155E+03  0.00000000000E+00 0.  1.
          6    1    1    2  501    0 -0.13533384454E+03  0.75687044489E+02  0.69832746716E+02  0.24258893358E+03  0.17300000000E+03 0.  1.
         -6    1    1    2    0  503  0.13533384454E+03 -0.75687044489E+02 -0.22714014505E+03  0.32490833119E+03  0.17300000000E+03 0.  1.
<mgrwt>
<rscale>  2 0.23232042E+03</rscale>
<asrwt>0</asrwt>
<pdfrwt beam="1">  1       21 0.31553067E-01 0.23232042E+03</pdfrwt>
<pdfrwt beam="2">  1       21 0.55754205E-01 0.23232042E+03</pdfrwt>
<totfact> 0.28654591E+04</totfact>
</mgrwt>
</event>
<event>
 4    1  0.4441180E+000  0.1821930E+03  0.7546771E-02  0.1165697E+00
         21   -1    0    0  503  502  0.00000000000E+00  0.00000000000E+00  0.40756519763E+03  0.40756519763E+03  0.00000000000E+00 0. -1.
         21   -1    0    0  501  503 -0.00000000000E+00 -0.00000000000E+00 -0.30377272532E+03  0.30377272532E+03  0.00000000000E+00 0. -1.
          6    1    1    2  501    0 -0.34967375010E+02  0.45194778604E+02 -0.25238001729E+03  0.31127151886E+03  0.17300000000E+03 0. -1.
         -6    1    1    2    0  502  0.34967375010E+02 -0.45194778604E+02  0.35617248960E+03  0.40006640408E+03  0.17300000000E+03 0. -1.
<mgrwt>
<rscale>  2 0.18219299E+03</rscale>
<asrwt>0</asrwt>
<pdfrwt beam="1">  1       21 0.62702338E-01 0.18219299E+03</pdfrwt>
<pdfrwt beam="2">  1       21 0.46734265E-01 0.18219299E+03</pdfrwt>
<totfact> 0.10404466E+04</totfact>
</mgrwt>
</event>
<event>
 4    1  0.4441180E+000  0.1969352E+03  0.7546771E-02  0.1152351E+00
         21   -1    0    0  501  502  0.00000000000E+00  0.00000000000E+00  0.13377790709E+03  0.13377790709E+03  0.00000000000E+00 0. -1.
         21   -1    0    0  502  503 -0.00000000000E+00 -0.00000000000E+00 -0.57447468223E+03  0.57447468223E+03  0.00000000000E+00 0. -1.
          6    1    1    2  501    0 -0.86733319093E+02 -0.36494000710E+02  0.28889258015E+02  0.19904288472E+03  0.17300000000E+03 0. -1.
         -6    1    1    2    0  503  0.86733319093E+02  0.36494000710E+02 -0.46958603316E+03  0.50920970461E+03  0.17300000000E+03 0. -1.
<mgrwt>
<rscale>  2 0.19693522E+03</rscale>
<asrwt>0</asrwt>
<pdfrwt beam="1">  1       21 0.20581216E-01 0.19693522E+03</pdfrwt>
<pdfrwt beam="2">  1       21 0.88380721E-01 0.19693522E+03</pdfrwt>
<totfact> 0.23909631E+04</totfact>
</mgrwt>
</event>
<event>
 4    1  0.4441180E+000  0.1757104E+03  0.7546771E-02  0.1172020E+00
         21   -1    0    0  501  502  0.00000000000E+00  0.00000000000E+00  0.34280907989E+02  0.34280907989E+02  0.00000000000E+00 0.  1.
         21   -1    0    0  502  503 -0.00000000000E+00 -0.00000000000E+00 -0.10758012189E+04  0.10758012189E+04  0.00000000000E+00 0.  1.
          6    1    1    2  501    0 -0.58866188785E+00  0.30737289273E+02 -0.29678448711E+03  0.34489876669E+03  0.17300000000E+03 0.  1.
         -6    1    1    2    0  503  0.58866188785E+00 -0.30737289273E+02 -0.74473582381E+03  0.76518336021E+03  0.17300000000E+03 0.  1.
<mgrwt>
<rscale>  2 0.17571035E+03</rscale>
<asrwt>0</asrwt>
<pdfrwt beam="1">  1       21 0.52739858E-02 0.17571035E+03</pdfrwt>
<pdfrwt beam="2">  1       21 0.16550788E+00 0.17571035E+03</pdfrwt>
<totfact> 0.56972520E+04</totfact>
</mgrwt>
</event>
<event>
 4    1  0.4441180E+000  0.2036654E+03  0.7546771E-02  0.1146683E+00
         21   -1    0    0  501  502  0.00000000000E+00  0.00000000000E+00  0.94039123600E+03  0.94039123600E+03  0.00000000000E+00 0. -1.
         21   -1    0    0  502  503 -0.00000000000E+00 -0.00000000000E+00 -0.59347691872E+02  0.59347691872E+02  0.00000000000E+00 0.  1.
          6    1    1    2  501    0  0.35056657143E+01 -0.10741649434E+03  0.18722455706E+03  0.27664531031E+03  0.17300000000E+03 0.  1.
         -6    1    1    2    0  503 -0.35056657143E+01  0.10741649434E+03  0.69381898706E+03  0.72309361756E+03  0.17300000000E+03 0. -1.
<mgrwt>
<rscale>  2 0.20366539E+03</rscale>
<asrwt>0</asrwt>
<pdfrwt beam="1">  1       21 0.14467556E+00 0.20366539E+03</pdfrwt>
<pdfrwt beam="2">  1       21 0.91304148E-02 0.20366539E+03</pdfrwt>
<totfact> 0.31085051E+04</totfact>
</mgrwt>
</event>
<event>
 4    1  0.4441180E+000  0.2474561E+03  0.7546771E-02  0.1114923E+00
         21   -1    0    0  503  502  0.00000000000E+00  0.00000000000E+00  0.45022164896E+03  0.45022164896E+03  0.00000000000E+00 0. -1.
         21   -1    0    0  501  503 -0.00000000000E+00 -0.00000000000E+00 -0.13964265096E+03  0.13964265096E+03  0.00000000000E+00 0.  1.
          6    1    1    2  501    0 -0.55463425648E+02 -0.16801579284E+03  0.10771824588E+03  0.26988463966E+03  0.17300000000E+03 0. -1.
         -6    1    1    2    0  502  0.55463425648E+02  0.16801579284E+03  0.20286075212E+03  0.31997966026E+03  0.17300000000E+03 0.  1.
<mgrwt>
<rscale>  2 0.24745605E+03</rscale>
<asrwt>0</asrwt>
<pdfrwt beam="1">  1       21 0.69264868E-01 0.24745605E+03</pdfrwt>
<pdfrwt beam="2">  1       21 0.21483485E-01 0.24745605E+03</pdfrwt>
<totfact> 0.37280224E+04</totfact>
</mgrwt>
</event>
<event>
 4    1  0.4441180E+000  0.1813202E+03  0.7546771E-02  0.1166531E+00
         21   -1    0    0  503  502  0.00000000000E+00  0.00000000000E+00  0.77339173807E+02  0.77339173807E+02  0.00000000000E+00 0.  1.
         21   -1    0    0  501  503 -0.00000000000E+00 -0.00000000000E+00 -0.73972136199E+03  0.73972136199E+03  0.00000000000E+00 0.  1.
          6    1    1    2  501    0 -0.52103651100E+02  0.15271750021E+02 -0.59762105795E+03  0.62452217391E+03  0.17300000000E+03 0.  1.
         -6    1    1    2    0  502  0.52103651100E+02 -0.15271750021E+02 -0.64761130233E+02  0.19253836188E+03  0.17300000000E+03 0.  1.
<mgrwt>
<rscale>  2 0.18132021E+03</rscale>
<asrwt>0</asrwt>
<pdfrwt beam="1">  1       21 0.11898335E-01 0.18132021E+03</pdfrwt>
<pdfrwt beam="2">  1       21 0.11380328E+00 0.18132021E+03</pdfrwt>
<totfact> 0.36057534E+04</totfact>
</mgrwt>
</event>
<event>
 4    1  0.4441180E+000  0.2087435E+03  0.7546771E-02  0.1142565E+00
         21   -1    0    0  501  502  0.00000000000E+00  0.00000000000E+00  0.33024513602E+03  0.33024513602E+03  0.00000000000E+00 0. -1.
         21   -1    0    0  502  503 -0.00000000000E+00 -0.00000000000E+00 -0.24616490790E+03  0.24616490790E+03  0.00000000000E+00 0.  1.
          6    1    1    2  501    0  0.11629667179E+03 -0.10950611847E+02  0.23835872109E+03  0.31684177706E+03  0.17300000000E+03 0. -1.
         -6    1    1    2    0  503 -0.11629667179E+03  0.10950611847E+02 -0.15427849297E+03  0.25956826686E+03  0.17300000000E+03 0.  1.
<mgrwt>
<rscale>  2 0.20874346E+03</rscale>
<asrwt>0</asrwt>
<pdfrwt beam="1">  1       21 0.50806944E-01 0.20874346E+03</pdfrwt>
<pdfrwt beam="2">  1       21 0.37871524E-01 0.20874346E+03</pdfrwt>
<totfact> 0.24552948E+04</totfact>
</mgrwt>
</event>
<event>
 4    1  0.4441180E+000  0.2618893E+03  0.7546771E-02  0.1106013E+00
         21   -1    0    0  501  502  0.00000000000E+00  0.00000000000E+00  0.93382389180E+02  0.93382389180E+02  0.00000000000E+00 0.  1.
         21   -1    0    0  502  503 -0.00000000000E+00 -0.00000000000E+00 -0.78663699037E+03  0.78663699037E+03  0.00000000000E+00 0.  1.
          6    1    1    2  501    0 -0.15182189345E+03  0.12492851821E+03 -0.23330977560E+03  0.35074131976E+03  0.17300000000E+03 0.  1.
         -6    1    1    2    0  503  0.15182189345E+03 -0.12492851821E+03 -0.45994482559E+03  0.52927805980E+03  0.17300000000E+03 0.  1.
<mgrwt>
<rscale>  2 0.26188933E+03</rscale>
<asrwt>0</asrwt>
<pdfrwt beam="1">  1       21 0.14366521E-01 0.26188933E+03</pdfrwt>
<pdfrwt beam="2">  1       21 0.12102108E+00 0.26188933E+03</pdfrwt>
<totfact> 0.21105678E+04</totfact>
</mgrwt>
</event>
<event>
 4    1  0.4441180E+000  0.1946724E+03  0.7546771E-02  0.1154313E+00
         21   -1    0    0  503  502  0.00000000000E+00  0.00000000000E+00  0.81107589477E+03  0.81107589477E+03  0.00000000000E+00 0.  1.
         21   -1    0    0  501  503 -0.00000000000E+00 -0.00000000000E+00 -0.50879866128E+02  0.50879866128E+02  0.00000000000E+00 0.  1.
          6    1    1    2  501    0  0.68904777859E+02  0.56749361288E+02  0.25693763825E+03  0.32235742331E+03  0.17300000000E+03 0.  1.
         -6    1    1    2    0  502 -0.68904777859E+02 -0.56749361288E+02  0.50325839039E+03  0.53959833758E+03  0.17300000000E+03 0.  1.
<mgrwt>
<rscale>  2 0.19467244E+03</rscale>
<asrwt>0</asrwt>
<pdfrwt beam="1">  1       21 0.12478090E+00 0.19467244E+03</pdfrwt>
<pdfrwt beam="2">  1       21 0.78276723E-02 0.19467244E+03</pdfrwt>
<totfact> 0.59655696E+04</totfact>
</mgrwt>
</event>
