<event>
 4    1  0.4349106E+000  0.2070749E+03  0.7546771E-02  0.1143904E+00
         21   -1    0    0  501  502  0.00000000000E+00  0.00000000000E+00  0.44383663521E+03  0.44383663521E+03  0.00000000000E+00 0.  1.
         21   -1    0    0  502  503 -0.00000000000E+00 -0.00000000000E+00 -0.17279845758E+03  0.17279845758E+03  0.00000000000E+00 0. -1.
          6    1    1    2  501    0 -0.98619565854E+02  0.56790840139E+02  0.34024213268E+03  0.39830230623E+03  0.17300000000E+03 0.  1.
         -6    1    1    2    0  503  0.98619565854E+02 -0.56790840139E+02 -0.69203955047E+02  0.21833278656E+03  0.17300000000E+03 0. -1.
<mgrwt>
<rscale>  2 0.20707491E+03</rscale>
<asrwt>0</asrwt>
<pdfrwt beam="1">  1       21 0.68282559E-01 0.20707491E+03</pdfrwt>
<pdfrwt beam="2">  1       21 0.26584378E-01 0.20707491E+03</pdfrwt>
<totfact> 0.26135597E+04</totfact>
</mgrwt>
</event>
<event>
 4    1  0.4349106E+000  0.1967464E+03  0.7546771E-02  0.1152513E+00
         21   -1    0    0  503  502  0.00000000000E+00  0.00000000000E+00  0.21941342096E+03  0.21941342096E+03  0.00000000000E+00 0. -1.
         21   -1    0    0  501  503 -0.00000000000E+00 -0.00000000000E+00 -0.34318471430E+03  0.34318471430E+03  0.00000000000E+00 0. -1.
          6    1    1    2  501    0 -0.34811412882E+02 -0.86996052606E+02  0.13420416543E+03  0.23815941228E+03  0.17300000000E+03 0. -1.
         -6    1    1    2    0  502  0.34811412882E+02  0.86996052606E+02 -0.25797545878E+03  0.32443872298E+03  0.17300000000E+03 0. -1.
<mgrwt>
<rscale>  2 0.19674640E+03</rscale>
<asrwt>0</asrwt>
<pdfrwt beam="1">  1       21 0.33755911E-01 0.19674640E+03</pdfrwt>
<pdfrwt beam="2">  1       21 0.52797648E-01 0.19674640E+03</pdfrwt>
<totfact> 0.28678577E+04</totfact>
</mgrwt>
</event>
<event>
 4    1  0.4349106E+000  0.1925362E+03  0.7546771E-02  0.1156193E+00
         21   -1    0    0  503  502  0.00000000000E+00  0.00000000000E+00  0.10865491777E+04  0.10865491777E+04  0.00000000000E+00 0. -1.
         21   -1    0    0  501  503 -0.00000000000E+00 -0.00000000000E+00 -0.54350647469E+02  0.54350647469E+02  0.00000000000E+00 0.  1.
          6    1    1    2  501    0  0.66066364098E+02 -0.52691961795E+02  0.16804400106E+03  0.25555624351E+03  0.17300000000E+03 0.  1.
         -6    1    1    2    0  502 -0.66066364098E+02  0.52691961795E+02  0.86415452917E+03  0.88534358166E+03  0.17300000000E+03 0.  1.
<mgrwt>
<rscale>  2 0.19253625E+03</rscale>
<asrwt>0</asrwt>
<pdfrwt beam="1">  1       21 0.16716140E+00 0.19253625E+03</pdfrwt>
<pdfrwt beam="2">  1       21 0.83616389E-02 0.19253625E+03</pdfrwt>
<totfact> 0.24830647E+04</totfact>
</mgrwt>
</event>
<event>
 4    1  0.4349106E+000  0.4443733E+03  0.7546771E-02  0.1029413E+00
         21   -1    0    0  501  502  0.00000000000E+00  0.00000000000E+00  0.21982503212E+03  0.21982503212E+03  0.00000000000E+00 0. -1.
         21   -1    0    0  502  503 -0.00000000000E+00 -0.00000000000E+00 -0.99818334396E+03  0.99818334396E+03  0.00000000000E+00 0.  1.
          6    1    1    2  501    0 -0.34052999173E+02 -0.40789584501E+03 -0.19652715846E+03  0.48589150141E+03  0.17300000000E+03 0.  1.
         -6    1    1    2    0  503  0.34052999173E+02  0.40789584501E+03 -0.58183115338E+03  0.73211687467E+03  0.17300000000E+03 0.  1.
<mgrwt>
<rscale>  2 0.44437330E+03</rscale>
<asrwt>0</asrwt>
<pdfrwt beam="1">  1       21 0.33819236E-01 0.44437330E+03</pdfrwt>
<pdfrwt beam="2">  1       21 0.15356666E+00 0.44437330E+03</pdfrwt>
<totfact> 0.20293125E+03</totfact>
</mgrwt>
</event>
<event>
 4    1  0.4349106E+000  0.2005351E+03  0.7546771E-02  0.1149288E+00
         21   -1    0    0  503  502  0.00000000000E+00  0.00000000000E+00  0.15357897070E+04  0.15357897070E+04  0.00000000000E+00 0.  1.
         21   -1    0    0  501  503 -0.00000000000E+00 -0.00000000000E+00 -0.26466392944E+02  0.26466392944E+02  0.00000000000E+00 0.  1.
          6    1    1    2  501    0  0.28367392507E+02  0.97368409952E+02  0.67408655659E+03  0.70328301699E+03  0.17300000000E+03 0.  1.
         -6    1    1    2    0  502 -0.28367392507E+02 -0.97368409952E+02  0.83523675749E+03  0.85897308297E+03  0.17300000000E+03 0.  1.
<mgrwt>
<rscale>  2 0.20053507E+03</rscale>
<asrwt>0</asrwt>
<pdfrwt beam="1">  1       21 0.23627527E+00 0.20053507E+03</pdfrwt>
<pdfrwt beam="2">  1       21 0.40717540E-02 0.20053507E+03</pdfrwt>
<totfact> 0.30308154E+04</totfact>
</mgrwt>
</event>
<event>
 4    1  0.4349106E+000  0.1756939E+03  0.7546771E-02  0.1172037E+00
         21   -1    0    0  503  502  0.00000000000E+00  0.00000000000E+00  0.11901115229E+03  0.11901115229E+03  0.00000000000E+00 0.  1.
         21   -1    0    0  501  503 -0.00000000000E+00 -0.00000000000E+00 -0.27843668607E+03  0.27843668607E+03  0.00000000000E+00 0.  1.
          6    1    1    2  501    0 -0.27206818149E+02  0.14111631755E+02 -0.13171041520E+03  0.21958138030E+03  0.17300000000E+03 0.  1.
         -6    1    1    2    0  502  0.27206818149E+02 -0.14111631755E+02 -0.27715118576E+02  0.17786645806E+03  0.17300000000E+03 0.  1.
<mgrwt>
<rscale>  2 0.17569391E+03</rscale>
<asrwt>0</asrwt>
<pdfrwt beam="1">  1       21 0.18309408E-01 0.17569391E+03</pdfrwt>
<pdfrwt beam="2">  1       21 0.42836413E-01 0.17569391E+03</pdfrwt>
<totfact> 0.14339283E+05</totfact>
</mgrwt>
</event>
<event>
 4    1  0.4349106E+000  0.1987476E+03  0.7546771E-02  0.1150800E+00
         21   -1    0    0  503  502  0.00000000000E+00  0.00000000000E+00  0.67079592186E+02  0.67079592186E+02  0.00000000000E+00 0. -1.
         21   -1    0    0  501  503 -0.00000000000E+00 -0.00000000000E+00 -0.75521095236E+03  0.75521095236E+03  0.00000000000E+00 0. -1.
          6    1    1    2  501    0  0.34817585663E+02 -0.91429422887E+02 -0.53702758110E+03  0.57262485670E+03  0.17300000000E+03 0.  1.
         -6    1    1    2    0  502 -0.34817585663E+02  0.91429422887E+02 -0.15110377907E+03  0.24966568785E+03  0.17300000000E+03 0.  1.
<mgrwt>
<rscale>  2 0.19874759E+03</rscale>
<asrwt>0</asrwt>
<pdfrwt beam="1">  1       21 0.10319937E-01 0.19874759E+03</pdfrwt>
<pdfrwt beam="2">  1       21 0.11618630E+00 0.19874759E+03</pdfrwt>
<totfact> 0.43737013E+04</totfact>
</mgrwt>
</event>
<event>
 4    1  0.4349106E+000  0.1804803E+03  0.7546771E-02  0.1167339E+00
         21   -1    0    0  501  502  0.00000000000E+00  0.00000000000E+00  0.28991246198E+02  0.28991246198E+02  0.00000000000E+00 0.  1.
         21   -1    0    0  502  503 -0.00000000000E+00 -0.00000000000E+00 -0.11802097281E+04  0.11802097281E+04  0.00000000000E+00 0.  1.
          6    1    1    2  501    0 -0.48793304555E+02 -0.16228215008E+02 -0.44313769967E+03  0.47848109931E+03  0.17300000000E+03 0.  1.
         -6    1    1    2    0  503  0.48793304555E+02  0.16228215008E+02 -0.70808078225E+03  0.73071987501E+03  0.17300000000E+03 0.  1.
<mgrwt>
<rscale>  2 0.18048031E+03</rscale>
<asrwt>0</asrwt>
<pdfrwt beam="1">  1       21 0.44601914E-02 0.18048031E+03</pdfrwt>
<pdfrwt beam="2">  1       21 0.18157074E+00 0.18048031E+03</pdfrwt>
<totfact> 0.58359308E+04</totfact>
</mgrwt>
</event>
<event>
 4    1  0.4349106E+000  0.2020941E+03  0.7546771E-02  0.1147984E+00
         21   -1    0    0  501  502  0.00000000000E+00  0.00000000000E+00  0.11095648774E+04  0.11095648774E+04  0.00000000000E+00 0.  1.
         21   -1    0    0  502  503 -0.00000000000E+00 -0.00000000000E+00 -0.37440208991E+02  0.37440208991E+02  0.00000000000E+00 0.  1.
          6    1    1    2  501    0  0.75422859642E+02  0.72280240638E+02  0.61052385711E+03  0.64310296302E+03  0.17300000000E+03 0.  1.
         -6    1    1    2    0  503 -0.75422859642E+02 -0.72280240638E+02  0.46160081126E+03  0.50390212333E+03  0.17300000000E+03 0.  1.
<mgrwt>
<rscale>  2 0.20209414E+03</rscale>
<asrwt>0</asrwt>
<pdfrwt beam="1">  1       21 0.17070226E+00 0.20209414E+03</pdfrwt>
<pdfrwt beam="2">  1       21 0.57600330E-02 0.20209414E+03</pdfrwt>
<totfact> 0.44347602E+04</totfact>
</mgrwt>
</event>
<event>
 4    1  0.4349106E+000  0.1788593E+03  0.7546771E-02  0.1168912E+00
         21   -1    0    0  503  502  0.00000000000E+00  0.00000000000E+00  0.53346953977E+03  0.53346953977E+03  0.00000000000E+00 0. -1.
         21   -1    0    0  501  503 -0.00000000000E+00 -0.00000000000E+00 -0.14426492522E+03  0.14426492522E+03  0.00000000000E+00 0. -1.
          6    1    1    2  501    0 -0.43238995128E+02  0.13857552958E+02 -0.64431996366E+02  0.19011082197E+03  0.17300000000E+03 0. -1.
         -6    1    1    2    0  502  0.43238995128E+02 -0.13857552958E+02  0.45363661091E+03  0.48762364302E+03  0.17300000000E+03 0. -1.
<mgrwt>
<rscale>  2 0.17885928E+03</rscale>
<asrwt>0</asrwt>
<pdfrwt beam="1">  1       21 0.82072236E-01 0.17885928E+03</pdfrwt>
<pdfrwt beam="2">  1       21 0.22194604E-01 0.17885928E+03</pdfrwt>
<totfact> 0.24839028E+04</totfact>
</mgrwt>
</event>
<event>
 4    1  0.4349106E+000  0.1894684E+03  0.7546771E-02  0.1158942E+00
         21   -1    0    0  503  502  0.00000000000E+00  0.00000000000E+00  0.46399103138E+03  0.46399103138E+03  0.00000000000E+00 0.  1.
         21   -1    0    0  501  503 -0.00000000000E+00 -0.00000000000E+00 -0.12095604980E+03  0.12095604980E+03  0.00000000000E+00 0. -1.
          6    1    1    2  501    0  0.52369674316E+01  0.77083452412E+02 -0.40540311897E+01  0.18951179286E+03  0.17300000000E+03 0. -1.
         -6    1    1    2    0  502 -0.52369674316E+01 -0.77083452412E+02  0.34708901277E+03  0.39543528832E+03  0.17300000000E+03 0.  1.
<mgrwt>
<rscale>  2 0.18946843E+03</rscale>
<asrwt>0</asrwt>
<pdfrwt beam="1">  1       21 0.71383235E-01 0.18946843E+03</pdfrwt>
<pdfrwt beam="2">  1       21 0.18608623E-01 0.18946843E+03</pdfrwt>
<totfact> 0.46919421E+04</totfact>
</mgrwt>
</event>
<event>
 4    1  0.4349106E+000  0.2218219E+03  0.7546771E-02  0.1132532E+00
         21   -1    0    0  503  502  0.00000000000E+00  0.00000000000E+00  0.30343897813E+03  0.30343897813E+03  0.00000000000E+00 0.  1.
         21   -1    0    0  501  503 -0.00000000000E+00 -0.00000000000E+00 -0.10206302446E+04  0.10206302446E+04  0.00000000000E+00 0. -1.
          6    1    1    2  501    0  0.93893003231E+02 -0.10227437726E+03 -0.96576479012E+03  0.99091199112E+03  0.17300000000E+03 0. -1.
         -6    1    1    2    0  502 -0.93893003231E+02  0.10227437726E+03  0.24857352366E+03  0.33315723160E+03  0.17300000000E+03 0.  1.
<mgrwt>
<rscale>  2 0.22182188E+03</rscale>
<asrwt>0</asrwt>
<pdfrwt beam="1">  1       21 0.46682919E-01 0.22182188E+03</pdfrwt>
<pdfrwt beam="2">  1       21 0.15702004E+00 0.22182188E+03</pdfrwt>
<totfact> 0.11300675E+03</totfact>
</mgrwt>
</event>
<event>
 4    1  0.4349106E+000  0.1955130E+03  0.7546771E-02  0.1153581E+00
         21   -1    0    0  501  502  0.00000000000E+00  0.00000000000E+00  0.64542344908E+02  0.64542344908E+02  0.00000000000E+00 0. -1.
         21   -1    0    0  502  503 -0.00000000000E+00 -0.00000000000E+00 -0.86992671256E+03  0.86992671256E+03  0.00000000000E+00 0. -1.
          6    1    1    2  501    0 -0.87182613910E+02  0.26373015646E+02 -0.13871789693E+03  0.23972484029E+03  0.17300000000E+03 0. -1.
         -6    1    1    2    0  503  0.87182613910E+02 -0.26373015646E+02 -0.66666647072E+03  0.69474421717E+03  0.17300000000E+03 0. -1.
<mgrwt>
<rscale>  2 0.19551303E+03</rscale>
<asrwt>0</asrwt>
<pdfrwt beam="1">  1       21 0.99295922E-02 0.19551303E+03</pdfrwt>
<pdfrwt beam="2">  1       21 0.13383487E+00 0.19551303E+03</pdfrwt>
<totfact> 0.32940585E+04</totfact>
</mgrwt>
</event>
<event>
 4    1  0.4349106E+000  0.2126002E+03  0.7546771E-02  0.1139523E+00
         21   -1    0    0  503  502  0.00000000000E+00  0.00000000000E+00  0.62820074649E+02  0.62820074649E+02  0.00000000000E+00 0. -1.
         21   -1    0    0  501  503 -0.00000000000E+00 -0.00000000000E+00 -0.12251344157E+04  0.12251344157E+04  0.00000000000E+00 0.  1.
          6    1    1    2  501    0 -0.17246556783E+02  0.12236178897E+03 -0.99486932635E+03  0.10173317196E+04  0.17300000000E+03 0.  1.
         -6    1    1    2    0  502  0.17246556783E+02 -0.12236178897E+03 -0.16744501471E+03  0.27062277079E+03  0.17300000000E+03 0. -1.
<mgrwt>
<rscale>  2 0.21260021E+03</rscale>
<asrwt>0</asrwt>
<pdfrwt beam="1">  1       21 0.96646272E-02 0.21260021E+03</pdfrwt>
<pdfrwt beam="2">  1       21 0.18848221E+00 0.21260021E+03</pdfrwt>
<totfact> 0.13546528E+04</totfact>
</mgrwt>
</event>
<event>
 4    1  0.4349106E+000  0.2565457E+03  0.7546771E-02  0.1109237E+00
         21   -1    0    0  501  502  0.00000000000E+00  0.00000000000E+00  0.10442616511E+03  0.10442616511E+03  0.00000000000E+00 0.  1.
         21   -1    0    0  502  503 -0.00000000000E+00 -0.00000000000E+00 -0.64636050409E+03  0.64636050409E+03  0.00000000000E+00 0.  1.
          6    1    1    2  501    0  0.18932703055E+03  0.64786444800E+01 -0.21172092663E+03  0.33262809278E+03  0.17300000000E+03 0.  1.
         -6    1    1    2    0  503 -0.18932703055E+03 -0.64786444800E+01 -0.33021341235E+03  0.41815857641E+03  0.17300000000E+03 0.  1.
<mgrwt>
<rscale>  2 0.25654570E+03</rscale>
<asrwt>0</asrwt>
<pdfrwt beam="1">  1       21 0.16065563E-01 0.25654570E+03</pdfrwt>
<pdfrwt beam="2">  1       21 0.99440080E-01 0.25654570E+03</pdfrwt>
<totfact> 0.27849322E+04</totfact>
</mgrwt>
</event>
<event>
 4    1  0.4349106E+000  0.1781073E+03  0.7546771E-02  0.1169647E+00
         21   -1    0    0  501  502  0.00000000000E+00  0.00000000000E+00  0.73983580900E+03  0.73983580900E+03  0.00000000000E+00 0.  1.
         21   -1    0    0  502  503 -0.00000000000E+00 -0.00000000000E+00 -0.69088868904E+02  0.69088868904E+02  0.00000000000E+00 0. -1.
          6    1    1    2  501    0 -0.41543665533E+02  0.82058122152E+01  0.58450001268E+03  0.61103394041E+03  0.17300000000E+03 0.  1.
         -6    1    1    2    0  503  0.41543665533E+02 -0.82058122152E+01  0.86246927412E+02  0.19789073750E+03  0.17300000000E+03 0. -1.
<mgrwt>
<rscale>  2 0.17810730E+03</rscale>
<asrwt>0</asrwt>
<pdfrwt beam="1">  1       21 0.11382089E+00 0.17810730E+03</pdfrwt>
<pdfrwt beam="2">  1       21 0.10629057E-01 0.17810730E+03</pdfrwt>
<totfact> 0.44127464E+04</totfact>
</mgrwt>
</event>
<event>
 4    1  0.4349106E+000  0.1941153E+03  0.7546771E-02  0.1154801E+00
         21   -1    0    0  501  502  0.00000000000E+00  0.00000000000E+00  0.31357711635E+03  0.31357711635E+03  0.00000000000E+00 0.  1.
         21   -1    0    0  502  503 -0.00000000000E+00 -0.00000000000E+00 -0.18636595137E+03  0.18636595137E+03  0.00000000000E+00 0.  1.
          6    1    1    2  501    0  0.23224890190E+02 -0.84925669124E+02  0.21259032152E+03  0.28788089482E+03  0.17300000000E+03 0.  1.
         -6    1    1    2    0  503 -0.23224890190E+02  0.84925669124E+02 -0.85379156540E+02  0.21206217289E+03  0.17300000000E+03 0.  1.
<mgrwt>
<rscale>  2 0.19411534E+03</rscale>
<asrwt>0</asrwt>
<pdfrwt beam="1">  1       21 0.48242633E-01 0.19411534E+03</pdfrwt>
<pdfrwt beam="2">  1       21 0.28671685E-01 0.19411534E+03</pdfrwt>
<totfact> 0.47735105E+04</totfact>
</mgrwt>
</event>
<event>
 4    1  0.4349106E+000  0.2221197E+03  0.7546771E-02  0.1132312E+00
         21   -1    0    0  501  502  0.00000000000E+00  0.00000000000E+00  0.34096942140E+03  0.34096942140E+03  0.00000000000E+00 0.  1.
         21   -1    0    0  502  503 -0.00000000000E+00 -0.00000000000E+00 -0.27604352608E+03  0.27604352608E+03  0.00000000000E+00 0.  1.
          6    1    1    2  501    0  0.74785392485E+02  0.11753861935E+03  0.24526956839E+03  0.33089929457E+03  0.17300000000E+03 0.  1.
         -6    1    1    2    0  503 -0.74785392485E+02 -0.11753861935E+03 -0.18034367307E+03  0.28611365291E+03  0.17300000000E+03 0.  1.
<mgrwt>
<rscale>  2 0.22211975E+03</rscale>
<asrwt>0</asrwt>
<pdfrwt beam="1">  1       21 0.52456834E-01 0.22211975E+03</pdfrwt>
<pdfrwt beam="2">  1       21 0.42468235E-01 0.22211975E+03</pdfrwt>
<totfact> 0.18067378E+04</totfact>
</mgrwt>
</event>
<event>
 4    1  0.4349106E+000  0.2140514E+03  0.7546771E-02  0.1138397E+00
         21   -1    0    0  501  502  0.00000000000E+00  0.00000000000E+00  0.94034880781E+03  0.94034880781E+03  0.00000000000E+00 0. -1.
         21   -1    0    0  502  503 -0.00000000000E+00 -0.00000000000E+00 -0.13187987673E+03  0.13187987673E+03  0.00000000000E+00 0. -1.
          6    1    1    2  501    0 -0.10937189476E+03 -0.62664234389E+02  0.82994397253E+03  0.85710268648E+03  0.17300000000E+03 0. -1.
         -6    1    1    2    0  503  0.10937189476E+03  0.62664234389E+02 -0.21475041455E+02  0.21512599806E+03  0.17300000000E+03 0. -1.
<mgrwt>
<rscale>  2 0.21405144E+03</rscale>
<asrwt>0</asrwt>
<pdfrwt beam="1">  1       21 0.14466904E+00 0.21405144E+03</pdfrwt>
<pdfrwt beam="2">  1       21 0.20289212E-01 0.21405144E+03</pdfrwt>
<totfact> 0.72639949E+03</totfact>
</mgrwt>
</event>
<event>
 4    1  0.4349106E+000  0.2549106E+03  0.7546771E-02  0.1110240E+00
         21   -1    0    0  501  502  0.00000000000E+00  0.00000000000E+00  0.25999001844E+03  0.25999001844E+03  0.00000000000E+00 0.  1.
         21   -1    0    0  502  503 -0.00000000000E+00 -0.00000000000E+00 -0.31204011297E+03  0.31204011297E+03  0.00000000000E+00 0. -1.
          6    1    1    2  501    0  0.48126402139E+02  0.18092619045E+03  0.10157859938E+03  0.27440417057E+03  0.17300000000E+03 0.  1.
         -6    1    1    2    0  503 -0.48126402139E+02 -0.18092619045E+03 -0.15362869391E+03  0.29762596084E+03  0.17300000000E+03 0. -1.
<mgrwt>
<rscale>  2 0.25491065E+03</rscale>
<asrwt>0</asrwt>
<pdfrwt beam="1">  1       21 0.39998465E-01 0.25491065E+03</pdfrwt>
<pdfrwt beam="2">  1       21 0.48006171E-01 0.25491065E+03</pdfrwt>
<totfact> 0.24187235E+04</totfact>
</mgrwt>
</event>
<event>
 4    1  0.4349106E+000  0.1903812E+03  0.7546771E-02  0.1158118E+00
         21   -1    0    0  503  502  0.00000000000E+00  0.00000000000E+00  0.54798756691E+03  0.54798756691E+03  0.00000000000E+00 0.  1.
         21   -1    0    0  501  503 -0.00000000000E+00 -0.00000000000E+00 -0.89964002653E+02  0.89964002653E+02  0.00000000000E+00 0.  1.
          6    1    1    2  501    0  0.41607302747E+02  0.67711495352E+02  0.64872654260E+02  0.20113049375E+03  0.17300000000E+03 0.  1.
         -6    1    1    2    0  502 -0.41607302747E+02 -0.67711495352E+02  0.39315091000E+03  0.43682107582E+03  0.17300000000E+03 0.  1.
<mgrwt>
<rscale>  2 0.19038123E+03</rscale>
<asrwt>0</asrwt>
<pdfrwt beam="1">  1       21 0.84305777E-01 0.19038123E+03</pdfrwt>
<pdfrwt beam="2">  1       21 0.13840616E-01 0.19038123E+03</pdfrwt>
<totfact> 0.55485182E+04</totfact>
</mgrwt>
</event>
<event>
 4    1  0.4349106E+000  0.2075506E+03  0.7546771E-02  0.1143520E+00
         21   -1    0    0  501  502  0.00000000000E+00  0.00000000000E+00  0.45972363023E+03  0.45972363023E+03  0.00000000000E+00 0. -1.
         21   -1    0    0  502  503 -0.00000000000E+00 -0.00000000000E+00 -0.49569847735E+03  0.49569847735E+03  0.00000000000E+00 0. -1.
          6    1    1    2  501    0 -0.93798037980E+02  0.65955811361E+02  0.41220956548E+03  0.46151269414E+03  0.17300000000E+03 0. -1.
         -6    1    1    2    0  503  0.93798037980E+02 -0.65955811361E+02 -0.44818441260E+03  0.49390941344E+03  0.17300000000E+03 0. -1.
<mgrwt>
<rscale>  2 0.20755057E+03</rscale>
<asrwt>0</asrwt>
<pdfrwt beam="1">  1       21 0.70726712E-01 0.20755057E+03</pdfrwt>
<pdfrwt beam="2">  1       21 0.76261304E-01 0.20755057E+03</pdfrwt>
<totfact> 0.27392717E+03</totfact>
</mgrwt>
</event>
<event>
 4    1  0.4349106E+000  0.2406804E+03  0.7546771E-02  0.1119340E+00
         21   -1    0    0  503  502  0.00000000000E+00  0.00000000000E+00  0.61476396795E+02  0.61476396795E+02  0.00000000000E+00 0.  1.
         21   -1    0    0  501  503 -0.00000000000E+00 -0.00000000000E+00 -0.11180378311E+04  0.11180378311E+04  0.00000000000E+00 0.  1.
          6    1    1    2  501    0 -0.16218878632E+03  0.41144236753E+02 -0.76212186879E+03  0.79922261824E+03  0.17300000000E+03 0.  1.
         -6    1    1    2    0  502  0.16218878632E+03 -0.41144236753E+02 -0.29443956549E+03  0.38029160963E+03  0.17300000000E+03 0.  1.
<mgrwt>
<rscale>  2 0.24068039E+03</rscale>
<asrwt>0</asrwt>
<pdfrwt beam="1">  1       21 0.94579070E-02 0.24068039E+03</pdfrwt>
<pdfrwt beam="2">  1       21 0.17200582E+00 0.24068039E+03</pdfrwt>
<totfact> 0.17912061E+04</totfact>
</mgrwt>
</event>
<event>
 4    1  0.4349106E+000  0.1866795E+03  0.7546771E-02  0.1161491E+00
         21   -1    0    0  501  502  0.00000000000E+00  0.00000000000E+00  0.64335131573E+02  0.64335131573E+02  0.00000000000E+00 0.  1.
         21   -1    0    0  502  503 -0.00000000000E+00 -0.00000000000E+00 -0.54350046222E+03  0.54350046222E+03  0.00000000000E+00 0.  1.
          6    1    1    2  501    0 -0.39667275325E+02 -0.57850960936E+02 -0.22200637412E+03  0.29006215983E+03  0.17300000000E+03 0.  1.
         -6    1    1    2    0  503  0.39667275325E+02  0.57850960936E+02 -0.25715895652E+03  0.31777343396E+03  0.17300000000E+03 0.  1.
<mgrwt>
<rscale>  2 0.18667948E+03</rscale>
<asrwt>0</asrwt>
<pdfrwt beam="1">  1       21 0.98977125E-02 0.18667948E+03</pdfrwt>
<pdfrwt beam="2">  1       21 0.83615456E-01 0.18667948E+03</pdfrwt>
<totfact> 0.10303909E+05</totfact>
</mgrwt>
</event>
<event>
 4    1  0.4349106E+000  0.1825596E+03  0.7546771E-02  0.1165349E+00
         21   -1    0    0  501  502  0.00000000000E+00  0.00000000000E+00  0.45861106998E+02  0.45861106998E+02  0.00000000000E+00 0.  1.
         21   -1    0    0  502  503 -0.00000000000E+00 -0.00000000000E+00 -0.93650689064E+03  0.93650689064E+03  0.00000000000E+00 0.  1.
          6    1    1    2  501    0  0.56861910241E+02 -0.12873934093E+02 -0.21284497702E+03  0.28041219527E+03  0.17300000000E+03 0.  1.
         -6    1    1    2    0  503 -0.56861910241E+02  0.12873934093E+02 -0.67780080662E+03  0.70195580236E+03  0.17300000000E+03 0.  1.
<mgrwt>
<rscale>  2 0.18255962E+03</rscale>
<asrwt>0</asrwt>
<pdfrwt beam="1">  1       21 0.70555547E-02 0.18255962E+03</pdfrwt>
<pdfrwt beam="2">  1       21 0.14407799E+00 0.18255962E+03</pdfrwt>
<totfact> 0.49836864E+04</totfact>
</mgrwt>
</event>
<event>
 4    1  0.4349106E+000  0.2116578E+03  0.7546771E-02  0.1140260E+00
         21   -1    0    0  503  502  0.00000000000E+00  0.00000000000E+00  0.35761742083E+03  0.35761742083E+03  0.00000000000E+00 0.  1.
         21   -1    0    0  501  503 -0.00000000000E+00 -0.00000000000E+00 -0.12569909407E+03  0.12569909407E+03  0.00000000000E+00 0.  1.
          6    1    1    2  501    0  0.11733561457E+03 -0.33202060995E+02  0.10185320865E+03  0.23488954726E+03  0.17300000000E+03 0.  1.
         -6    1    1    2    0  502 -0.11733561457E+03  0.33202060995E+02  0.13006511811E+03  0.24842696764E+03  0.17300000000E+03 0.  1.
<mgrwt>
<rscale>  2 0.21165780E+03</rscale>
<asrwt>0</asrwt>
<pdfrwt beam="1">  1       21 0.55018064E-01 0.21165780E+03</pdfrwt>
<pdfrwt beam="2">  1       21 0.19338322E-01 0.21165780E+03</pdfrwt>
<totfact> 0.75979560E+04</totfact>
</mgrwt>
</event>
<event>
 4    1  0.4349106E+000  0.2119552E+03  0.7546771E-02  0.1140027E+00
         21   -1    0    0  503  502  0.00000000000E+00  0.00000000000E+00  0.66739240903E+02  0.66739240903E+02  0.00000000000E+00 0.  1.
         21   -1    0    0  501  503 -0.00000000000E+00 -0.00000000000E+00 -0.73325854974E+03  0.73325854974E+03  0.00000000000E+00 0.  1.
          6    1    1    2  501    0  0.11814836278E+03 -0.32201741957E+02 -0.44779173630E+03  0.49542146392E+03  0.17300000000E+03 0.  1.
         -6    1    1    2    0  502 -0.11814836278E+03  0.32201741957E+02 -0.21872757254E+03  0.30457632673E+03  0.17300000000E+03 0.  1.
<mgrwt>
<rscale>  2 0.21195516E+03</rscale>
<asrwt>0</asrwt>
<pdfrwt beam="1">  1       21 0.10267575E-01 0.21195516E+03</pdfrwt>
<pdfrwt beam="2">  1       21 0.11280901E+00 0.21195516E+03</pdfrwt>
<totfact> 0.47099461E+04</totfact>
</mgrwt>
</event>
<event>
 4    1  0.4349106E+000  0.1745535E+03  0.7546771E-02  0.1173181E+00
         21   -1    0    0  501  502  0.00000000000E+00  0.00000000000E+00  0.34943250015E+03  0.34943250015E+03  0.00000000000E+00 0. -1.
         21   -1    0    0  502  503 -0.00000000000E+00 -0.00000000000E+00 -0.10404105492E+03  0.10404105492E+03  0.00000000000E+00 0. -1.
          6    1    1    2  501    0 -0.11118273114E+02 -0.20403547640E+02  0.21393104799E+03  0.27610761317E+03  0.17300000000E+03 0. -1.
         -6    1    1    2    0  503  0.11118273114E+02  0.20403547640E+02  0.31460397240E+02  0.17736594190E+03  0.17300000000E+03 0. -1.
<mgrwt>
<rscale>  2 0.17455349E+03</rscale>
<asrwt>0</asrwt>
<pdfrwt beam="1">  1       21 0.53758846E-01 0.17455349E+03</pdfrwt>
<pdfrwt beam="2">  1       21 0.16006316E-01 0.17455349E+03</pdfrwt>
<totfact> 0.11480660E+05</totfact>
</mgrwt>
</event>
<event>
 4    1  0.4349106E+000  0.2119728E+03  0.7546771E-02  0.1140013E+00
         21   -1    0    0  501  502  0.00000000000E+00  0.00000000000E+00  0.40676916883E+02  0.40676916883E+02  0.00000000000E+00 0.  1.
         21   -1    0    0  502  503 -0.00000000000E+00 -0.00000000000E+00 -0.13845012175E+04  0.13845012175E+04  0.00000000000E+00 0.  1.
          6    1    1    2  501    0  0.12240856086E+03  0.44286673228E+01 -0.35152090512E+03  0.41048680320E+03  0.17300000000E+03 0.  1.
         -6    1    1    2    0  503 -0.12240856086E+03 -0.44286673228E+01 -0.99230339549E+03  0.10146913312E+04  0.17300000000E+03 0.  1.
<mgrwt>
<rscale>  2 0.21197280E+03</rscale>
<asrwt>0</asrwt>
<pdfrwt beam="1">  1       21 0.62579866E-02 0.21197280E+03</pdfrwt>
<pdfrwt beam="2">  1       21 0.21300021E+00 0.21197280E+03</pdfrwt>
<totfact> 0.20087838E+04</totfact>
</mgrwt>
</event>
<event>
 4    1  0.4349106E+000  0.2096852E+03  0.7546771E-02  0.1141816E+00
         21   -1    0    0  503  502  0.00000000000E+00  0.00000000000E+00  0.81657881035E+03  0.81657881035E+03  0.00000000000E+00 0. -1.
         21   -1    0    0  501  503 -0.00000000000E+00 -0.00000000000E+00 -0.57891464398E+02  0.57891464398E+02  0.00000000000E+00 0.  1.
          6    1    1    2  501    0 -0.73181377757E+02 -0.93184540568E+02  0.26373268906E+03  0.33693145286E+03  0.17300000000E+03 0. -1.
         -6    1    1    2    0  502  0.73181377757E+02  0.93184540568E+02  0.49495465690E+03  0.53753882189E+03  0.17300000000E+03 0.  1.
<mgrwt>
<rscale>  2 0.20968518E+03</rscale>
<asrwt>0</asrwt>
<pdfrwt beam="1">  1       21 0.12562750E+00 0.20968518E+03</pdfrwt>
<pdfrwt beam="2">  1       21 0.89063797E-02 0.20968518E+03</pdfrwt>
<totfact> 0.46438551E+04</totfact>
</mgrwt>
</event>
<event>
 4    1  0.4349106E+000  0.1840075E+03  0.7546771E-02  0.1163980E+00
         21   -1    0    0  501  502  0.00000000000E+00  0.00000000000E+00  0.58112688071E+03  0.58112688071E+03  0.00000000000E+00 0. -1.
         21   -1    0    0  502  503 -0.00000000000E+00 -0.00000000000E+00 -0.99770011030E+02  0.99770011030E+02  0.00000000000E+00 0. -1.
          6    1    1    2  501    0  0.61571578925E+02  0.11777006701E+02  0.46026563371E+03  0.49568458801E+03  0.17300000000E+03 0. -1.
         -6    1    1    2    0  503 -0.61571578925E+02 -0.11777006701E+02  0.21091235971E+02  0.18521230373E+03  0.17300000000E+03 0. -1.
<mgrwt>
<rscale>  2 0.18400749E+03</rscale>
<asrwt>0</asrwt>
<pdfrwt beam="1">  1       21 0.89404134E-01 0.18400749E+03</pdfrwt>
<pdfrwt beam="2">  1       21 0.15349233E-01 0.18400749E+03</pdfrwt>
<totfact> 0.40310788E+04</totfact>
</mgrwt>
</event>
<event>
 4    1  0.4349106E+000  0.1739309E+03  0.7546771E-02  0.1173810E+00
         21   -1    0    0  503  502  0.00000000000E+00  0.00000000000E+00  0.11292269594E+03  0.11292269594E+03  0.00000000000E+00 0.  1.
         21   -1    0    0  501  503 -0.00000000000E+00 -0.00000000000E+00 -0.52040533841E+03  0.52040533841E+03  0.00000000000E+00 0.  1.
          6    1    1    2  501    0 -0.16254909199E+02  0.76628343681E+01 -0.42431998514E+03  0.45858411539E+03  0.17300000000E+03 0.  1.
         -6    1    1    2    0  502  0.16254909199E+02 -0.76628343681E+01  0.16837342668E+02  0.17474391895E+03  0.17300000000E+03 0.  1.
<mgrwt>
<rscale>  2 0.17393085E+03</rscale>
<asrwt>0</asrwt>
<pdfrwt beam="1">  1       21 0.17372722E-01 0.17393085E+03</pdfrwt>
<pdfrwt beam="2">  1       21 0.80062360E-01 0.17393085E+03</pdfrwt>
<totfact> 0.41553350E+04</totfact>
</mgrwt>
</event>
<event>
 4    1  0.4349106E+000  0.2929805E+03  0.7546771E-02  0.1088803E+00
         21   -1    0    0  501  502  0.00000000000E+00  0.00000000000E+00  0.63451221568E+03  0.63451221568E+03  0.00000000000E+00 0. -1.
         21   -1    0    0  502  503 -0.00000000000E+00 -0.00000000000E+00 -0.14900539162E+03  0.14900539162E+03  0.00000000000E+00 0.  1.
          6    1    1    2  501    0  0.92046944276E+02 -0.21779793329E+03  0.36164770717E+03  0.46543167468E+03  0.17300000000E+03 0. -1.
         -6    1    1    2    0  503 -0.92046944276E+02  0.21779793329E+03  0.12385911690E+03  0.31808593262E+03  0.17300000000E+03 0.  1.
<mgrwt>
<rscale>  2 0.29298051E+03</rscale>
<asrwt>0</asrwt>
<pdfrwt beam="1">  1       21 0.97617262E-01 0.29298051E+03</pdfrwt>
<pdfrwt beam="2">  1       21 0.22923907E-01 0.29298051E+03</pdfrwt>
<totfact> 0.14695643E+04</totfact>
</mgrwt>
</event>
<event>
 4    1  0.4349106E+000  0.2475802E+03  0.7546771E-02  0.1114844E+00
         21   -1    0    0  503  502  0.00000000000E+00  0.00000000000E+00  0.12554186410E+03  0.12554186410E+03  0.00000000000E+00 0. -1.
         21   -1    0    0  501  503 -0.00000000000E+00 -0.00000000000E+00 -0.50733597631E+03  0.50733597631E+03  0.00000000000E+00 0.  1.
          6    1    1    2  501    0  0.93625553385E+02  0.15033696076E+03 -0.12952263715E+03  0.27941377838E+03  0.17300000000E+03 0. -1.
         -6    1    1    2    0  502 -0.93625553385E+02 -0.15033696076E+03 -0.25227147507E+03  0.35346406203E+03  0.17300000000E+03 0.  1.
<mgrwt>
<rscale>  2 0.24758018E+03</rscale>
<asrwt>0</asrwt>
<pdfrwt beam="1">  1       21 0.19314133E-01 0.24758018E+03</pdfrwt>
<pdfrwt beam="2">  1       21 0.78051687E-01 0.24758018E+03</pdfrwt>
<totfact> 0.34858359E+04</totfact>
</mgrwt>
</event>
<event>
 4    1  0.4349106E+000  0.1839963E+03  0.7546771E-02  0.1163990E+00
         21   -1    0    0  503  502  0.00000000000E+00  0.00000000000E+00  0.18998464828E+03  0.18998464828E+03  0.00000000000E+00 0.  1.
         21   -1    0    0  501  503 -0.00000000000E+00 -0.00000000000E+00 -0.68198413248E+03  0.68198413248E+03  0.00000000000E+00 0.  1.
          6    1    1    2  501    0  0.68959518504E+01 -0.62274410696E+02 -0.62072021968E+03  0.64741659501E+03  0.17300000000E+03 0.  1.
         -6    1    1    2    0  502 -0.68959518504E+01  0.62274410696E+02  0.12872073548E+03  0.22455218574E+03  0.17300000000E+03 0.  1.
<mgrwt>
<rscale>  2 0.18399635E+03</rscale>
<asrwt>0</asrwt>
<pdfrwt beam="1">  1       21 0.29228408E-01 0.18399635E+03</pdfrwt>
<pdfrwt beam="2">  1       21 0.10492063E+00 0.18399635E+03</pdfrwt>
<totfact> 0.82578684E+03</totfact>
</mgrwt>
</event>
<event>
 4    1  0.4349106E+000  0.1949868E+03  0.7546771E-02  0.1154039E+00
         21   -1    0    0  503  502  0.00000000000E+00  0.00000000000E+00  0.43459644728E+03  0.43459644728E+03  0.00000000000E+00 0.  1.
         21   -1    0    0  501  503 -0.00000000000E+00 -0.00000000000E+00 -0.97292670278E+02  0.97292670278E+02  0.00000000000E+00 0. -1.
          6    1    1    2  501    0 -0.84444803845E+02 -0.30982939117E+02  0.84206707730E+02  0.21239264827E+03  0.17300000000E+03 0. -1.
         -6    1    1    2    0  502  0.84444803845E+02  0.30982939117E+02  0.25309706927E+03  0.31949646929E+03  0.17300000000E+03 0.  1.
<mgrwt>
<rscale>  2 0.19498684E+03</rscale>
<asrwt>0</asrwt>
<pdfrwt beam="1">  1       21 0.66860991E-01 0.19498684E+03</pdfrwt>
<pdfrwt beam="2">  1       21 0.14968103E-01 0.19498684E+03</pdfrwt>
<totfact> 0.80624762E+04</totfact>
</mgrwt>
</event>
<event>
 4    1  0.4349106E+000  0.1743509E+03  0.7546771E-02  0.1173385E+00
         21   -1    0    0  503  502  0.00000000000E+00  0.00000000000E+00  0.15019315203E+02  0.15019315203E+02  0.00000000000E+00 0.  1.
         21   -1    0    0  501  503 -0.00000000000E+00 -0.00000000000E+00 -0.20705566053E+04  0.20705566053E+04  0.00000000000E+00 0.  1.
          6    1    1    2  501    0 -0.21099403720E+02  0.49059810209E+01 -0.11842288727E+04  0.11969946852E+04  0.17300000000E+03 0.  1.
         -6    1    1    2    0  502  0.21099403720E+02 -0.49059810209E+01 -0.87130841742E+03  0.88858123532E+03  0.17300000000E+03 0.  1.
<mgrwt>
<rscale>  2 0.17435095E+03</rscale>
<asrwt>0</asrwt>
<pdfrwt beam="1">  1       21 0.23106655E-02 0.17435095E+03</pdfrwt>
<pdfrwt beam="2">  1       21 0.31854695E+00 0.17435095E+03</pdfrwt>
<totfact> 0.26454790E+04</totfact>
</mgrwt>
</event>
<event>
 4    1  0.4349106E+000  0.1967508E+03  0.7546771E-02  0.1152510E+00
         21   -1    0    0  503  502  0.00000000000E+00  0.00000000000E+00  0.81050136533E+03  0.81050136533E+03  0.00000000000E+00 0. -1.
         21   -1    0    0  501  503 -0.00000000000E+00 -0.00000000000E+00 -0.55655741684E+02  0.55655741684E+02  0.00000000000E+00 0.  1.
          6    1    1    2  501    0 -0.75585910090E+02 -0.55395336263E+02  0.21431938187E+03  0.29093585295E+03  0.17300000000E+03 0.  1.
         -6    1    1    2    0  502  0.75585910090E+02  0.55395336263E+02  0.54052624177E+03  0.57522125406E+03  0.17300000000E+03 0. -1.
<mgrwt>
<rscale>  2 0.19675079E+03</rscale>
<asrwt>0</asrwt>
<pdfrwt beam="1">  1       21 0.12469251E+00 0.19675079E+03</pdfrwt>
<pdfrwt beam="2">  1       21 0.85624224E-02 0.19675079E+03</pdfrwt>
<totfact> 0.51049299E+04</totfact>
</mgrwt>
</event>
<event>
 4    1  0.4349106E+000  0.1885856E+03  0.7546771E-02  0.1159743E+00
         21   -1    0    0  501  502  0.00000000000E+00  0.00000000000E+00  0.47795247013E+03  0.47795247013E+03  0.00000000000E+00 0. -1.
         21   -1    0    0  502  503 -0.00000000000E+00 -0.00000000000E+00 -0.74442280113E+02  0.74442280113E+02  0.00000000000E+00 0. -1.
          6    1    1    2  501    0 -0.12870722413E+02  0.73958689275E+02  0.20748789038E+03  0.28038503503E+03  0.17300000000E+03 0.  1.
         -6    1    1    2    0  503  0.12870722413E+02 -0.73958689275E+02  0.19602229963E+03  0.27200971521E+03  0.17300000000E+03 0.  1.
<mgrwt>
<rscale>  2 0.18858564E+03</rscale>
<asrwt>0</asrwt>
<pdfrwt beam="1">  1       21 0.73531147E-01 0.18858564E+03</pdfrwt>
<pdfrwt beam="2">  1       21 0.11452659E-01 0.18858564E+03</pdfrwt>
<totfact> 0.10614882E+05</totfact>
</mgrwt>
</event>
<event>
 4    1  0.4349106E+000  0.1981650E+03  0.7546771E-02  0.1151296E+00
         21   -1    0    0  501  502  0.00000000000E+00  0.00000000000E+00  0.68987862295E+03  0.68987862295E+03  0.00000000000E+00 0.  1.
         21   -1    0    0  502  503 -0.00000000000E+00 -0.00000000000E+00 -0.30362335614E+03  0.30362335614E+03  0.00000000000E+00 0.  1.
          6    1    1    2  501    0  0.94102480158E+02  0.22025147149E+02  0.64089947275E+03  0.67083643166E+03  0.17300000000E+03 0.  1.
         -6    1    1    2    0  503 -0.94102480158E+02 -0.22025147149E+02 -0.25464420594E+03  0.32266554743E+03  0.17300000000E+03 0.  1.
<mgrwt>
<rscale>  2 0.19816504E+03</rscale>
<asrwt>0</asrwt>
<pdfrwt beam="1">  1       21 0.10613517E+00 0.19816504E+03</pdfrwt>
<pdfrwt beam="2">  1       21 0.46711286E-01 0.19816504E+03</pdfrwt>
<totfact> 0.31095054E+03</totfact>
</mgrwt>
</event>
<event>
 4    1  0.4349106E+000  0.2260683E+03  0.7546771E-02  0.1129438E+00
         21   -1    0    0  503  502  0.00000000000E+00  0.00000000000E+00  0.12254972881E+03  0.12254972881E+03  0.00000000000E+00 0.  1.
         21   -1    0    0  501  503 -0.00000000000E+00 -0.00000000000E+00 -0.91311206420E+03  0.91311206420E+03  0.00000000000E+00 0.  1.
          6    1    1    2  501    0 -0.60348675001E+02  0.13242317171E+03 -0.77696421936E+03  0.80918493383E+03  0.17300000000E+03 0.  1.
         -6    1    1    2    0  502  0.60348675001E+02 -0.13242317171E+03 -0.13598116031E+02  0.22647685917E+03  0.17300000000E+03 0.  1.
<mgrwt>
<rscale>  2 0.22606826E+03</rscale>
<asrwt>0</asrwt>
<pdfrwt beam="1">  1       21 0.18853804E-01 0.22606826E+03</pdfrwt>
<pdfrwt beam="2">  1       21 0.14047878E+00 0.22606826E+03</pdfrwt>
<totfact> 0.89204512E+03</totfact>
</mgrwt>
</event>
<event>
 4    1  0.4349106E+000  0.3587257E+03  0.7546771E-02  0.1059090E+00
         21   -1    0    0  503  502  0.00000000000E+00  0.00000000000E+00  0.15515065734E+03  0.15515065734E+03  0.00000000000E+00 0.  1.
         21   -1    0    0  501  503 -0.00000000000E+00 -0.00000000000E+00 -0.11096195653E+04  0.11096195653E+04  0.00000000000E+00 0.  1.
          6    1    1    2  501    0  0.28162905851E+03  0.13942800488E+03 -0.79501925549E+03  0.87220393930E+03  0.17300000000E+03 0.  1.
         -6    1    1    2    0  502 -0.28162905851E+03 -0.13942800488E+03 -0.15944965250E+03  0.39256628335E+03  0.17300000000E+03 0.  1.
<mgrwt>
<rscale>  2 0.35872565E+03</rscale>
<asrwt>0</asrwt>
<pdfrwt beam="1">  1       21 0.23869333E-01 0.35872565E+03</pdfrwt>
<pdfrwt beam="2">  1       21 0.17071070E+00 0.35872565E+03</pdfrwt>
<totfact> 0.31188362E+03</totfact>
</mgrwt>
</event>
<event>
 4    1  0.4349106E+000  0.1819491E+03  0.7546771E-02  0.1165930E+00
         21   -1    0    0  503  502  0.00000000000E+00  0.00000000000E+00  0.69514972648E+03  0.69514972648E+03  0.00000000000E+00 0.  1.
         21   -1    0    0  501  503 -0.00000000000E+00 -0.00000000000E+00 -0.55305882186E+02  0.55305882186E+02  0.00000000000E+00 0.  1.
          6    1    1    2  501    0  0.26146632405E+02 -0.49928363008E+02  0.18007391075E+03  0.25599238495E+03  0.17300000000E+03 0.  1.
         -6    1    1    2    0  502 -0.26146632405E+02  0.49928363008E+02  0.45976993354E+03  0.49446322371E+03  0.17300000000E+03 0.  1.
<mgrwt>
<rscale>  2 0.18194914E+03</rscale>
<asrwt>0</asrwt>
<pdfrwt beam="1">  1       21 0.10694611E+00 0.18194914E+03</pdfrwt>
<pdfrwt beam="2">  1       21 0.85085978E-02 0.18194914E+03</pdfrwt>
<totfact> 0.75702838E+04</totfact>
</mgrwt>
</event>
<event>
 4    1  0.4349106E+000  0.2794704E+03  0.7546771E-02  0.1095979E+00
         21   -1    0    0  501  502  0.00000000000E+00  0.00000000000E+00  0.27285347058E+03  0.27285347058E+03  0.00000000000E+00 0. -1.
         21   -1    0    0  502  503 -0.00000000000E+00 -0.00000000000E+00 -0.30977999190E+03  0.30977999190E+03  0.00000000000E+00 0.  1.
          6    1    1    2  501    0  0.20053601741E+03 -0.89218943873E+02  0.61828253457E+02  0.28622796360E+03  0.17300000000E+03 0. -1.
         -6    1    1    2    0  503 -0.20053601741E+03  0.89218943873E+02 -0.98754774773E+02  0.29640549888E+03  0.17300000000E+03 0.  1.
<mgrwt>
<rscale>  2 0.27947042E+03</rscale>
<asrwt>0</asrwt>
<pdfrwt beam="1">  1       21 0.41977457E-01 0.27947042E+03</pdfrwt>
<pdfrwt beam="2">  1       21 0.47658460E-01 0.27947042E+03</pdfrwt>
<totfact> 0.22011985E+04</totfact>
</mgrwt>
</event>
<event>
 4    1  0.4349106E+000  0.1780498E+03  0.7546771E-02  0.1169704E+00
         21   -1    0    0  501  502  0.00000000000E+00  0.00000000000E+00  0.18968118557E+03  0.18968118557E+03  0.00000000000E+00 0.  1.
         21   -1    0    0  502  503 -0.00000000000E+00 -0.00000000000E+00 -0.38962009552E+03  0.38962009552E+03  0.00000000000E+00 0.  1.
          6    1    1    2  501    0  0.41918146895E+02 -0.39491025385E+01  0.11891129377E+03  0.21410656747E+03  0.17300000000E+03 0.  1.
         -6    1    1    2    0  503 -0.41918146895E+02  0.39491025385E+01 -0.31885020371E+03  0.36519471362E+03  0.17300000000E+03 0.  1.
<mgrwt>
<rscale>  2 0.17804979E+03</rscale>
<asrwt>0</asrwt>
<pdfrwt beam="1">  1       21 0.29181721E-01 0.17804979E+03</pdfrwt>
<pdfrwt beam="2">  1       21 0.59941552E-01 0.17804979E+03</pdfrwt>
<totfact> 0.29434445E+04</totfact>
</mgrwt>
</event>
<event>
 4    1  0.4349106E+000  0.2375616E+03  0.7546771E-02  0.1121428E+00
         21   -1    0    0  503  502  0.00000000000E+00  0.00000000000E+00  0.78532975907E+03  0.78532975907E+03  0.00000000000E+00 0. -1.
         21   -1    0    0  501  503 -0.00000000000E+00 -0.00000000000E+00 -0.10130803863E+03  0.10130803863E+03  0.00000000000E+00 0.  1.
          6    1    1    2  501    0  0.27046603036E+02  0.16054594330E+03  0.10300623346E+03  0.25893204278E+03  0.17300000000E+03 0.  1.
         -6    1    1    2    0  502 -0.27046603036E+02 -0.16054594330E+03  0.58101548698E+03  0.62770575492E+03  0.17300000000E+03 0. -1.
<mgrwt>
<rscale>  2 0.23756161E+03</rscale>
<asrwt>0</asrwt>
<pdfrwt beam="1">  1       21 0.12081996E+00 0.23756161E+03</pdfrwt>
<pdfrwt beam="2">  1       21 0.15585853E-01 0.23756161E+03</pdfrwt>
<totfact> 0.18485265E+04</totfact>
</mgrwt>
</event>
<event>
 4    1  0.4349106E+000  0.1822887E+03  0.7546771E-02  0.1165606E+00
         21   -1    0    0  503  502  0.00000000000E+00  0.00000000000E+00  0.69367389067E+02  0.69367389067E+02  0.00000000000E+00 0.  1.
         21   -1    0    0  501  503 -0.00000000000E+00 -0.00000000000E+00 -0.76220354142E+03  0.76220354142E+03  0.00000000000E+00 0.  1.
          6    1    1    2  501    0  0.39310756661E+02  0.41890690128E+02 -0.59984864381E+03  0.62693505325E+03  0.17300000000E+03 0.  1.
         -6    1    1    2    0  502 -0.39310756661E+02 -0.41890690128E+02 -0.92987508540E+02  0.20463587724E+03  0.17300000000E+03 0.  1.
<mgrwt>
<rscale>  2 0.18228869E+03</rscale>
<asrwt>0</asrwt>
<pdfrwt beam="1">  1       21 0.10671906E-01 0.18228869E+03</pdfrwt>
<pdfrwt beam="2">  1       21 0.11726208E+00 0.18228869E+03</pdfrwt>
<totfact> 0.40655924E+04</totfact>
</mgrwt>
</event>
<event>
 4    1  0.4349106E+000  0.3093931E+03  0.7546771E-02  0.1080637E+00
         21   -1    0    0  503  502  0.00000000000E+00  0.00000000000E+00  0.87497159866E+03  0.87497159866E+03  0.00000000000E+00 0.  1.
         21   -1    0    0  501  503 -0.00000000000E+00 -0.00000000000E+00 -0.12247342394E+03  0.12247342394E+03  0.00000000000E+00 0. -1.
          6    1    1    2  501    0 -0.15654081334E+03  0.20319962162E+03  0.21332301972E+03  0.37580689617E+03  0.17300000000E+03 0. -1.
         -6    1    1    2    0  502  0.15654081334E+03 -0.20319962162E+03  0.53917515500E+03  0.62163812643E+03  0.17300000000E+03 0.  1.
<mgrwt>
<rscale>  2 0.30939314E+03</rscale>
<asrwt>0</asrwt>
<pdfrwt beam="1">  1       21 0.13461101E+00 0.30939314E+03</pdfrwt>
<pdfrwt beam="2">  1       21 0.18842066E-01 0.30939314E+03</pdfrwt>
<totfact> 0.95225316E+03</totfact>
</mgrwt>
</event>
<event>
 4    1  0.4349106E+000  0.2387946E+03  0.7546771E-02  0.1120598E+00
         21   -1    0    0  501  502  0.00000000000E+00  0.00000000000E+00  0.39397988997E+03  0.39397988997E+03  0.00000000000E+00 0.  1.
         21   -1    0    0  502  503 -0.00000000000E+00 -0.00000000000E+00 -0.18439820926E+03  0.18439820926E+03  0.00000000000E+00 0. -1.
          6    1    1    2  501    0 -0.16419268542E+03 -0.11602551484E+02  0.23891127422E+03  0.33778906746E+03  0.17300000000E+03 0.  1.
         -6    1    1    2    0  503  0.16419268542E+03  0.11602551484E+02 -0.29329593511E+02  0.24058903176E+03  0.17300000000E+03 0. -1.
<mgrwt>
<rscale>  2 0.23879459E+03</rscale>
<asrwt>0</asrwt>
<pdfrwt beam="1">  1       21 0.60612290E-01 0.23879459E+03</pdfrwt>
<pdfrwt beam="2">  1       21 0.28368955E-01 0.23879459E+03</pdfrwt>
<totfact> 0.29405694E+04</totfact>
</mgrwt>
</event>
<event>
 4    1  0.4349106E+000  0.1735972E+03  0.7546771E-02  0.1174148E+00
         21   -1    0    0  501  502  0.00000000000E+00  0.00000000000E+00  0.43550708408E+03  0.43550708408E+03  0.00000000000E+00 0.  1.
         21   -1    0    0  502  503 -0.00000000000E+00 -0.00000000000E+00 -0.94840868144E+02  0.94840868144E+02  0.00000000000E+00 0.  1.
          6    1    1    2  501    0 -0.76714911464E+01 -0.12170739510E+02  0.30821940755E+03  0.35374451497E+03  0.17300000000E+03 0.  1.
         -6    1    1    2    0  503  0.76714911464E+01  0.12170739510E+02  0.32446808382E+02  0.17660343726E+03  0.17300000000E+03 0.  1.
<mgrwt>
<rscale>  2 0.17359717E+03</rscale>
<asrwt>0</asrwt>
<pdfrwt beam="1">  1       21 0.67001089E-01 0.17359717E+03</pdfrwt>
<pdfrwt beam="2">  1       21 0.14590903E-01 0.17359717E+03</pdfrwt>
<totfact> 0.84816786E+04</totfact>
</mgrwt>
</event>
<event>
 4    1  0.4349106E+000  0.1853307E+03  0.7546771E-02  0.1162741E+00
         21   -1    0    0  503  502  0.00000000000E+00  0.00000000000E+00  0.49799009361E+03  0.49799009361E+03  0.00000000000E+00 0.  1.
         21   -1    0    0  501  503 -0.00000000000E+00 -0.00000000000E+00 -0.11095312128E+03  0.11095312128E+03  0.00000000000E+00 0.  1.
          6    1    1    2  501    0 -0.56436569632E+02 -0.35119484894E+02  0.62334406940E+01  0.18543548850E+03  0.17300000000E+03 0.  1.
         -6    1    1    2    0  502  0.56436569632E+02  0.35119484894E+02  0.38080353163E+03  0.42350772639E+03  0.17300000000E+03 0.  1.
<mgrwt>
<rscale>  2 0.18533069E+03</rscale>
<asrwt>0</asrwt>
<pdfrwt beam="1">  1       21 0.76613859E-01 0.18533069E+03</pdfrwt>
<pdfrwt beam="2">  1       21 0.17069711E-01 0.18533069E+03</pdfrwt>
<totfact> 0.47106550E+04</totfact>
</mgrwt>
</event>
<event>
 4    1  0.4349106E+000  0.1960528E+03  0.7546771E-02  0.1153113E+00
         21   -1    0    0  503  502  0.00000000000E+00  0.00000000000E+00  0.29593724119E+02  0.29593724119E+02  0.00000000000E+00 0. -1.
         21   -1    0    0  501  503 -0.00000000000E+00 -0.00000000000E+00 -0.19475036285E+04  0.19475036285E+04  0.00000000000E+00 0.  1.
          6    1    1    2  501    0 -0.34799774221E+02  0.85420657282E+02 -0.15294839727E+04  0.15419980336E+04  0.17300000000E+03 0.  1.
         -6    1    1    2    0  502  0.34799774221E+02 -0.85420657282E+02 -0.38842593163E+03  0.43509931893E+03  0.17300000000E+03 0. -1.
<mgrwt>
<rscale>  2 0.19605283E+03</rscale>
<asrwt>0</asrwt>
<pdfrwt beam="1">  1       21 0.45528787E-02 0.19605283E+03</pdfrwt>
<pdfrwt beam="2">  1       21 0.29961607E+00 0.19605283E+03</pdfrwt>
<totfact> 0.10774470E+04</totfact>
</mgrwt>
</event>
<event>
 4    1  0.4349106E+000  0.2065295E+03  0.7546771E-02  0.1144344E+00
         21   -1    0    0  503  502  0.00000000000E+00  0.00000000000E+00  0.22453302561E+03  0.22453302561E+03  0.00000000000E+00 0.  1.
         21   -1    0    0  501  503 -0.00000000000E+00 -0.00000000000E+00 -0.26379882176E+03  0.26379882176E+03  0.00000000000E+00 0.  1.
          6    1    1    2  501    0  0.44798579426E+02 -0.10353023482E+03 -0.14880333352E+03  0.25455226243E+03  0.17300000000E+03 0.  1.
         -6    1    1    2    0  502 -0.44798579426E+02  0.10353023482E+03  0.10953753737E+03  0.23377958494E+03  0.17300000000E+03 0.  1.
<mgrwt>
<rscale>  2 0.20652947E+03</rscale>
<asrwt>0</asrwt>
<pdfrwt beam="1">  1       21 0.34543543E-01 0.20652947E+03</pdfrwt>
<pdfrwt beam="2">  1       21 0.40584434E-01 0.20652947E+03</pdfrwt>
<totfact> 0.46922943E+04</totfact>
</mgrwt>
</event>
<event>
 4    1  0.4349106E+000  0.1861148E+03  0.7546771E-02  0.1162013E+00
         21   -1    0    0  501  502  0.00000000000E+00  0.00000000000E+00  0.89005370828E+02  0.89005370828E+02  0.00000000000E+00 0.  1.
         21   -1    0    0  502  503 -0.00000000000E+00 -0.00000000000E+00 -0.43141964476E+03  0.43141964476E+03  0.00000000000E+00 0.  1.
          6    1    1    2  501    0 -0.37922487239E+02  0.57197936535E+02 -0.25263273079E+03  0.31378657659E+03  0.17300000000E+03 0.  1.
         -6    1    1    2    0  503  0.37922487239E+02 -0.57197936535E+02 -0.89781543142E+02  0.20663843900E+03  0.17300000000E+03 0.  1.
<mgrwt>
<rscale>  2 0.18611480E+03</rscale>
<asrwt>0</asrwt>
<pdfrwt beam="1">  1       21 0.13693134E-01 0.18611480E+03</pdfrwt>
<pdfrwt beam="2">  1       21 0.66372253E-01 0.18611480E+03</pdfrwt>
<totfact> 0.96627834E+04</totfact>
</mgrwt>
</event>
<event>
 4    1  0.4349106E+000  0.2338662E+03  0.7546771E-02  0.1123948E+00
         21   -1    0    0  503  502  0.00000000000E+00  0.00000000000E+00  0.23782613243E+03  0.23782613243E+03  0.00000000000E+00 0.  1.
         21   -1    0    0  501  503 -0.00000000000E+00 -0.00000000000E+00 -0.23398147913E+03  0.23398147913E+03  0.00000000000E+00 0.  1.
          6    1    1    2  501    0  0.97268059721E+02 -0.12370667586E+03 -0.28957382956E+02  0.23565217403E+03  0.17300000000E+03 0.  1.
         -6    1    1    2    0  502 -0.97268059721E+02  0.12370667586E+03  0.32802036252E+02  0.23615543754E+03  0.17300000000E+03 0.  1.
<mgrwt>
<rscale>  2 0.23386624E+03</rscale>
<asrwt>0</asrwt>
<pdfrwt beam="1">  1       21 0.36588636E-01 0.23386624E+03</pdfrwt>
<pdfrwt beam="2">  1       21 0.35997151E-01 0.23386624E+03</pdfrwt>
<totfact> 0.52618406E+04</totfact>
</mgrwt>
</event>
<event>
 4    1  0.4349106E+000  0.1850434E+03  0.7546771E-02  0.1163009E+00
         21   -1    0    0  503  502  0.00000000000E+00  0.00000000000E+00  0.19917602311E+03  0.19917602311E+03  0.00000000000E+00 0.  1.
         21   -1    0    0  501  503 -0.00000000000E+00 -0.00000000000E+00 -0.19552183087E+03  0.19552183087E+03  0.00000000000E+00 0.  1.
          6    1    1    2  501    0 -0.65654422675E+02 -0.12469084957E+01 -0.66748451910E+02  0.19671404075E+03  0.17300000000E+03 0.  1.
         -6    1    1    2    0  502  0.65654422675E+02  0.12469084957E+01  0.70402644144E+02  0.19798381323E+03  0.17300000000E+03 0.  1.
<mgrwt>
<rscale>  2 0.18504339E+03</rscale>
<asrwt>0</asrwt>
<pdfrwt beam="1">  1       21 0.30642465E-01 0.18504339E+03</pdfrwt>
<pdfrwt beam="2">  1       21 0.30080281E-01 0.18504339E+03</pdfrwt>
<totfact> 0.10868829E+05</totfact>
</mgrwt>
</event>
<event>
 4    1  0.4349106E+000  0.2510967E+03  0.7546771E-02  0.1112614E+00
         21   -1    0    0  503  502  0.00000000000E+00  0.00000000000E+00  0.33668378071E+03  0.33668378071E+03  0.00000000000E+00 0. -1.
         21   -1    0    0  501  503 -0.00000000000E+00 -0.00000000000E+00 -0.21515468034E+03  0.21515468034E+03  0.00000000000E+00 0.  1.
          6    1    1    2  501    0 -0.34539359078E+02 -0.17868284848E+03 -0.38574082120E+02  0.25404229466E+03  0.17300000000E+03 0.  1.
         -6    1    1    2    0  502  0.34539359078E+02  0.17868284848E+03  0.16010318250E+03  0.29779616638E+03  0.17300000000E+03 0. -1.
<mgrwt>
<rscale>  2 0.25109665E+03</rscale>
<asrwt>0</asrwt>
<pdfrwt beam="1">  1       21 0.51797505E-01 0.25109665E+03</pdfrwt>
<pdfrwt beam="2">  1       21 0.33100720E-01 0.25109665E+03</pdfrwt>
<totfact> 0.30207872E+04</totfact>
</mgrwt>
</event>
<event>
 4    1  0.4349106E+000  0.1773037E+03  0.7546771E-02  0.1170438E+00
         21   -1    0    0  503  502  0.00000000000E+00  0.00000000000E+00  0.36483184020E+03  0.36483184020E+03  0.00000000000E+00 0.  1.
         21   -1    0    0  501  503 -0.00000000000E+00 -0.00000000000E+00 -0.88178134381E+02  0.88178134381E+02  0.00000000000E+00 0.  1.
          6    1    1    2  501    0  0.37010425232E+02  0.11740110985E+02  0.10412281112E+03  0.20561654014E+03  0.17300000000E+03 0.  1.
         -6    1    1    2    0  502 -0.37010425232E+02 -0.11740110985E+02  0.17253089470E+03  0.24739343445E+03  0.17300000000E+03 0.  1.
<mgrwt>
<rscale>  2 0.17730370E+03</rscale>
<asrwt>0</asrwt>
<pdfrwt beam="1">  1       21 0.56127974E-01 0.17730370E+03</pdfrwt>
<pdfrwt beam="2">  1       21 0.13565867E-01 0.17730370E+03</pdfrwt>
<totfact> 0.14137146E+05</totfact>
</mgrwt>
</event>
<event>
 4    1  0.4349106E+000  0.2515727E+03  0.7546771E-02  0.1112315E+00
         21   -1    0    0  503  502  0.00000000000E+00  0.00000000000E+00  0.10494084123E+03  0.10494084123E+03  0.00000000000E+00 0. -1.
         21   -1    0    0  501  503 -0.00000000000E+00 -0.00000000000E+00 -0.60875979621E+03  0.60875979621E+03  0.00000000000E+00 0. -1.
          6    1    1    2  501    0  0.16204534899E+03  0.84268228879E+02 -0.21747243774E+03  0.33254035951E+03  0.17300000000E+03 0. -1.
         -6    1    1    2    0  502 -0.16204534899E+03 -0.84268228879E+02 -0.28634651725E+03  0.38116027793E+03  0.17300000000E+03 0. -1.
<mgrwt>
<rscale>  2 0.25157271E+03</rscale>
<asrwt>0</asrwt>
<pdfrwt beam="1">  1       21 0.16144745E-01 0.25157271E+03</pdfrwt>
<pdfrwt beam="2">  1       21 0.93655353E-01 0.25157271E+03</pdfrwt>
<totfact> 0.31878295E+04</totfact>
</mgrwt>
</event>
<event>
 4    1  0.4349106E+000  0.1748502E+03  0.7546771E-02  0.1172882E+00
         21   -1    0    0  501  502  0.00000000000E+00  0.00000000000E+00  0.95574339611E+03  0.95574339611E+03  0.00000000000E+00 0.  1.
         21   -1    0    0  502  503 -0.00000000000E+00 -0.00000000000E+00 -0.33949081432E+02  0.33949081432E+02  0.00000000000E+00 0.  1.
          6    1    1    2  501    0 -0.25364062436E+02  0.50415427813E+00  0.57982205351E+03  0.60561225514E+03  0.17300000000E+03 0.  1.
         -6    1    1    2    0  503  0.25364062436E+02 -0.50415427813E+00  0.34197226117E+03  0.38408022240E+03  0.17300000000E+03 0.  1.
<mgrwt>
<rscale>  2 0.17485019E+03</rscale>
<asrwt>0</asrwt>
<pdfrwt beam="1">  1       21 0.14703742E+00 0.17485019E+03</pdfrwt>
<pdfrwt beam="2">  1       21 0.52229363E-02 0.17485019E+03</pdfrwt>
<totfact> 0.79388418E+04</totfact>
</mgrwt>
</event>
<event>
 4    1  0.4349106E+000  0.1929722E+03  0.7546771E-02  0.1155808E+00
         21   -1    0    0  503  502  0.00000000000E+00  0.00000000000E+00  0.10233072005E+03  0.10233072005E+03  0.00000000000E+00 0. -1.
         21   -1    0    0  501  503 -0.00000000000E+00 -0.00000000000E+00 -0.37425889595E+03  0.37425889595E+03  0.00000000000E+00 0.  1.
          6    1    1    2  501    0  0.61894243470E+02  0.58977806085E+02 -0.96321807895E+02  0.21567607577E+03  0.17300000000E+03 0. -1.
         -6    1    1    2    0  502 -0.61894243470E+02 -0.58977806085E+02 -0.17560636800E+03  0.26091354022E+03  0.17300000000E+03 0. -1.
<mgrwt>
<rscale>  2 0.19297222E+03</rscale>
<asrwt>0</asrwt>
<pdfrwt beam="1">  1       21 0.15743188E-01 0.19297222E+03</pdfrwt>
<pdfrwt beam="2">  1       21 0.57578292E-01 0.19297222E+03</pdfrwt>
<totfact> 0.10163685E+05</totfact>
</mgrwt>
</event>
<event>
 4    1  0.4349106E+000  0.1902420E+03  0.7546771E-02  0.1158243E+00
         21   -1    0    0  503  502  0.00000000000E+00  0.00000000000E+00  0.54497053529E+03  0.54497053529E+03  0.00000000000E+00 0.  1.
         21   -1    0    0  501  503 -0.00000000000E+00 -0.00000000000E+00 -0.68175584726E+02  0.68175584726E+02  0.00000000000E+00 0. -1.
          6    1    1    2  501    0  0.52027842986E+02 -0.59633148109E+02  0.18907470583E+03  0.26821866673E+03  0.17300000000E+03 0. -1.
         -6    1    1    2    0  502 -0.52027842986E+02  0.59633148109E+02  0.28772024473E+03  0.34492745328E+03  0.17300000000E+03 0.  1.
<mgrwt>
<rscale>  2 0.19024197E+03</rscale>
<asrwt>0</asrwt>
<pdfrwt beam="1">  1       21 0.83841618E-01 0.19024197E+03</pdfrwt>
<pdfrwt beam="2">  1       21 0.10488552E-01 0.19024197E+03</pdfrwt>
<totfact> 0.92300958E+04</totfact>
</mgrwt>
</event>
<event>
 4    1  0.4349106E+000  0.1809118E+03  0.7546771E-02  0.1166923E+00
         21   -1    0    0  503  502  0.00000000000E+00  0.00000000000E+00  0.36834244904E+03  0.36834244904E+03  0.00000000000E+00 0. -1.
         21   -1    0    0  501  503 -0.00000000000E+00 -0.00000000000E+00 -0.89245501858E+02  0.89245501858E+02  0.00000000000E+00 0. -1.
          6    1    1    2  501    0  0.41076554854E+02 -0.33358777151E+02  0.15468158222E+03  0.23802412325E+03  0.17300000000E+03 0. -1.
         -6    1    1    2    0  502 -0.41076554854E+02  0.33358777151E+02  0.12441536496E+03  0.21956382765E+03  0.17300000000E+03 0. -1.
<mgrwt>
<rscale>  2 0.18091183E+03</rscale>
<asrwt>0</asrwt>
<pdfrwt beam="1">  1       21 0.56668068E-01 0.18091183E+03</pdfrwt>
<pdfrwt beam="2">  1       21 0.13730077E-01 0.18091183E+03</pdfrwt>
<totfact> 0.13538622E+05</totfact>
</mgrwt>
</event>
<event>
 4    1  0.4349106E+000  0.2254422E+03  0.7546771E-02  0.1129889E+00
         21   -1    0    0  501  502  0.00000000000E+00  0.00000000000E+00  0.10201600925E+04  0.10201600925E+04  0.00000000000E+00 0. -1.
         21   -1    0    0  502  503 -0.00000000000E+00 -0.00000000000E+00 -0.11425604634E+03  0.11425604634E+03  0.00000000000E+00 0. -1.
          6    1    1    2  501    0  0.12050686623E+03 -0.79832879065E+02  0.87891107333E+03  0.90736369125E+03  0.17300000000E+03 0. -1.
         -6    1    1    2    0  503 -0.12050686623E+03  0.79832879065E+02  0.26992972880E+02  0.22705244763E+03  0.17300000000E+03 0. -1.
<mgrwt>
<rscale>  2 0.22544222E+03</rscale>
<asrwt>0</asrwt>
<pdfrwt beam="1">  1       21 0.15694770E+00 0.22544222E+03</pdfrwt>
<pdfrwt beam="2">  1       21 0.17577854E-01 0.22544222E+03</pdfrwt>
<totfact> 0.75834068E+03</totfact>
</mgrwt>
</event>
<event>
 4    1  0.4349106E+000  0.1743581E+03  0.7546771E-02  0.1173378E+00
         21   -1    0    0  501  502  0.00000000000E+00  0.00000000000E+00  0.23499923959E+03  0.23499923959E+03  0.00000000000E+00 0.  1.
         21   -1    0    0  502  503 -0.00000000000E+00 -0.00000000000E+00 -0.17201396711E+03  0.17201396711E+03  0.00000000000E+00 0.  1.
          6    1    1    2  501    0  0.18066720409E+02 -0.12055841039E+02  0.13282526883E+03  0.21918782295E+03  0.17300000000E+03 0.  1.
         -6    1    1    2    0  503 -0.18066720409E+02  0.12055841039E+02 -0.69839996355E+02  0.18782538375E+03  0.17300000000E+03 0.  1.
<mgrwt>
<rscale>  2 0.17435811E+03</rscale>
<asrwt>0</asrwt>
<pdfrwt beam="1">  1       21 0.36153729E-01 0.17435811E+03</pdfrwt>
<pdfrwt beam="2">  1       21 0.26463687E-01 0.17435811E+03</pdfrwt>
<totfact> 0.10091145E+05</totfact>
</mgrwt>
</event>
<event>
 4    1  0.4349106E+000  0.2127305E+03  0.7546771E-02  0.1139422E+00
         21   -1    0    0  503  502  0.00000000000E+00  0.00000000000E+00  0.52870019893E+03  0.52870019893E+03  0.00000000000E+00 0.  1.
         21   -1    0    0  501  503 -0.00000000000E+00 -0.00000000000E+00 -0.18698486462E+03  0.18698486462E+03  0.00000000000E+00 0.  1.
          6    1    1    2  501    0  0.25466910450E+02  0.12114737570E+03 -0.92645213768E+02  0.23202884691E+03  0.17300000000E+03 0.  1.
         -6    1    1    2    0  502 -0.25466910450E+02 -0.12114737570E+03  0.43436054808E+03  0.48365621664E+03  0.17300000000E+03 0.  1.
<mgrwt>
<rscale>  2 0.21273046E+03</rscale>
<asrwt>0</asrwt>
<pdfrwt beam="1">  1       21 0.81338491E-01 0.21273046E+03</pdfrwt>
<pdfrwt beam="2">  1       21 0.28766902E-01 0.21273046E+03</pdfrwt>
<totfact> 0.15122609E+04</totfact>
</mgrwt>
</event>
<event>
 4    1  0.4349106E+000  0.1974075E+03  0.7546771E-02  0.1151945E+00
         21   -1    0    0  501  502  0.00000000000E+00  0.00000000000E+00  0.52907600613E+03  0.52907600613E+03  0.00000000000E+00 0. -1.
         21   -1    0    0  502  503 -0.00000000000E+00 -0.00000000000E+00 -0.85285125069E+02  0.85285125069E+02  0.00000000000E+00 0.  1.
          6    1    1    2  501    0 -0.55282028725E+02 -0.77360330563E+02  0.33532520793E+03  0.38911787227E+03  0.17300000000E+03 0. -1.
         -6    1    1    2    0  503  0.55282028725E+02  0.77360330563E+02  0.10846567312E+03  0.22524325892E+03  0.17300000000E+03 0.  1.
<mgrwt>
<rscale>  2 0.19740751E+03</rscale>
<asrwt>0</asrwt>
<pdfrwt beam="1">  1       21 0.81396306E-01 0.19740751E+03</pdfrwt>
<pdfrwt beam="2">  1       21 0.13120789E-01 0.19740751E+03</pdfrwt>
<totfact> 0.65968277E+04</totfact>
</mgrwt>
</event>
<event>
 4    1  0.4349106E+000  0.2693702E+03  0.7546771E-02  0.1101641E+00
         21   -1    0    0  503  502  0.00000000000E+00  0.00000000000E+00  0.10274419786E+04  0.10274419786E+04  0.00000000000E+00 0.  1.
         21   -1    0    0  501  503 -0.00000000000E+00 -0.00000000000E+00 -0.10389475210E+03  0.10389475210E+03  0.00000000000E+00 0.  1.
          6    1    1    2  501    0 -0.17690596561E+03 -0.10646877189E+03  0.14165755362E+03  0.30434714152E+03  0.17300000000E+03 0.  1.
         -6    1    1    2    0  502  0.17690596561E+03  0.10646877189E+03  0.78188967285E+03  0.82698958915E+03  0.17300000000E+03 0.  1.
<mgrwt>
<rscale>  2 0.26937023E+03</rscale>
<asrwt>0</asrwt>
<pdfrwt beam="1">  1       21 0.15806799E+00 0.26937023E+03</pdfrwt>
<pdfrwt beam="2">  1       21 0.15983809E-01 0.26937023E+03</pdfrwt>
<totfact> 0.86224334E+03</totfact>
</mgrwt>
</event>
<event>
 4    1  0.4349106E+000  0.1800521E+03  0.7546771E-02  0.1167753E+00
         21   -1    0    0  501  502  0.00000000000E+00  0.00000000000E+00  0.56675896671E+03  0.56675896671E+03  0.00000000000E+00 0. -1.
         21   -1    0    0  502  503 -0.00000000000E+00 -0.00000000000E+00 -0.63218454441E+02  0.63218454441E+02  0.00000000000E+00 0. -1.
          6    1    1    2  501    0 -0.41022938426E+02  0.28405685929E+02  0.15458376762E+03  0.23730761825E+03  0.17300000000E+03 0.  1.
         -6    1    1    2    0  503  0.41022938426E+02 -0.28405685929E+02  0.34895674466E+03  0.39266980290E+03  0.17300000000E+03 0.  1.
<mgrwt>
<rscale>  2 0.18005212E+03</rscale>
<asrwt>0</asrwt>
<pdfrwt beam="1">  1       21 0.87193684E-01 0.18005212E+03</pdfrwt>
<pdfrwt beam="2">  1       21 0.97259165E-02 0.18005212E+03</pdfrwt>
<totfact> 0.96814937E+04</totfact>
</mgrwt>
</event>
<event>
 4    1  0.4349106E+000  0.1794974E+03  0.7546771E-02  0.1168290E+00
         21   -1    0    0  501  502  0.00000000000E+00  0.00000000000E+00  0.18865222212E+03  0.18865222212E+03  0.00000000000E+00 0.  1.
         21   -1    0    0  502  503 -0.00000000000E+00 -0.00000000000E+00 -0.18643013693E+03  0.18643013693E+03  0.00000000000E+00 0.  1.
          6    1    1    2  501    0 -0.40324088107E+02  0.25773995128E+02  0.55436287865E+02  0.18786301637E+03  0.17300000000E+03 0.  1.
         -6    1    1    2    0  503  0.40324088107E+02 -0.25773995128E+02 -0.53214202678E+02  0.18721934268E+03  0.17300000000E+03 0.  1.
<mgrwt>
<rscale>  2 0.17949744E+03</rscale>
<asrwt>0</asrwt>
<pdfrwt beam="1">  1       21 0.29023419E-01 0.17949744E+03</pdfrwt>
<pdfrwt beam="2">  1       21 0.28681560E-01 0.17949744E+03</pdfrwt>
<totfact> 0.13275008E+05</totfact>
</mgrwt>
</event>
<event>
 4    1  0.4349106E+000  0.1792534E+03  0.7546771E-02  0.1168528E+00
         21   -1    0    0  501  502  0.00000000000E+00  0.00000000000E+00  0.13909321808E+04  0.13909321808E+04  0.00000000000E+00 0. -1.
         21   -1    0    0  502  503 -0.00000000000E+00 -0.00000000000E+00 -0.33440531353E+02  0.33440531353E+02  0.00000000000E+00 0. -1.
          6    1    1    2  501    0  0.46882754139E+02  0.21859814234E+01  0.10747591544E+04  0.10896049794E+04  0.17300000000E+03 0.  1.
         -6    1    1    2    0  503 -0.46882754139E+02 -0.21859814234E+01  0.28273249513E+03  0.33476773284E+03  0.17300000000E+03 0.  1.
<mgrwt>
<rscale>  2 0.17925337E+03</rscale>
<asrwt>0</asrwt>
<pdfrwt beam="1">  1       21 0.21398952E+00 0.17925337E+03</pdfrwt>
<pdfrwt beam="2">  1       21 0.51446982E-02 0.17925337E+03</pdfrwt>
<totfact> 0.28369879E+04</totfact>
</mgrwt>
</event>
<event>
 4    1  0.4349106E+000  0.1909542E+03  0.7546771E-02  0.1157604E+00
         21   -1    0    0  501  502  0.00000000000E+00  0.00000000000E+00  0.14135972460E+03  0.14135972460E+03  0.00000000000E+00 0. -1.
         21   -1    0    0  502  503 -0.00000000000E+00 -0.00000000000E+00 -0.32047306062E+03  0.32047306062E+03  0.00000000000E+00 0. -1.
          6    1    1    2  501    0 -0.27178479878E+02  0.76130364543E+02  0.12439764457E+02  0.19135895567E+03  0.17300000000E+03 0. -1.
         -6    1    1    2    0  503  0.27178479878E+02 -0.76130364543E+02 -0.19155310047E+03  0.27047382956E+03  0.17300000000E+03 0. -1.
<mgrwt>
<rscale>  2 0.19095419E+03</rscale>
<asrwt>0</asrwt>
<pdfrwt beam="1">  1       21 0.21747650E-01 0.19095419E+03</pdfrwt>
<pdfrwt beam="2">  1       21 0.49303547E-01 0.19095419E+03</pdfrwt>
<totfact> 0.77454811E+04</totfact>
</mgrwt>
</event>
<event>
 4    1  0.4349106E+000  0.3330490E+03  0.7546771E-02  0.1069796E+00
         21   -1    0    0  501  502  0.00000000000E+00  0.00000000000E+00  0.15230363321E+03  0.15230363321E+03  0.00000000000E+00 0. -1.
         21   -1    0    0  502  503 -0.00000000000E+00 -0.00000000000E+00 -0.81531405629E+03  0.81531405629E+03  0.00000000000E+00 0.  1.
          6    1    1    2  501    0 -0.17611697248E+03  0.22355193295E+03 -0.17344456161E+03  0.37550588634E+03  0.17300000000E+03 0.  1.
         -6    1    1    2    0  503  0.17611697248E+03 -0.22355193295E+03 -0.48956586148E+03  0.59211180316E+03  0.17300000000E+03 0. -1.
<mgrwt>
<rscale>  2 0.33304903E+03</rscale>
<asrwt>0</asrwt>
<pdfrwt beam="1">  1       21 0.23431328E-01 0.33304903E+03</pdfrwt>
<pdfrwt beam="2">  1       21 0.12543293E+00 0.33304903E+03</pdfrwt>
<totfact> 0.74639141E+03</totfact>
</mgrwt>
</event>
<event>
 4    1  0.4349106E+000  0.3181658E+03  0.7546771E-02  0.1076497E+00
         21   -1    0    0  503  502  0.00000000000E+00  0.00000000000E+00  0.59318354700E+03  0.59318354700E+03  0.00000000000E+00 0.  1.
         21   -1    0    0  501  503 -0.00000000000E+00 -0.00000000000E+00 -0.18360434372E+03  0.18360434372E+03  0.00000000000E+00 0. -1.
          6    1    1    2  501    0  0.26481779326E+03  0.34235130259E+02  0.10164146926E+03  0.33400673054E+03  0.17300000000E+03 0. -1.
         -6    1    1    2    0  502 -0.26481779326E+03 -0.34235130259E+02  0.30793773402E+03  0.44278116018E+03  0.17300000000E+03 0.  1.
<mgrwt>
<rscale>  2 0.31816585E+03</rscale>
<asrwt>0</asrwt>
<pdfrwt beam="1">  1       21 0.91259006E-01 0.31816585E+03</pdfrwt>
<pdfrwt beam="2">  1       21 0.28246822E-01 0.31816585E+03</pdfrwt>
<totfact> 0.11386560E+04</totfact>
</mgrwt>
</event>
<event>
 4    1  0.4349106E+000  0.1797720E+03  0.7546771E-02  0.1168024E+00
         21   -1    0    0  501  502  0.00000000000E+00  0.00000000000E+00  0.29803558689E+03  0.29803558689E+03  0.00000000000E+00 0. -1.
         21   -1    0    0  502  503 -0.00000000000E+00 -0.00000000000E+00 -0.10875579099E+03  0.10875579099E+03  0.00000000000E+00 0. -1.
          6    1    1    2  501    0  0.48636850126E+02  0.48388845021E+01  0.83620483876E+02  0.19826836187E+03  0.17300000000E+03 0. -1.
         -6    1    1    2    0  503 -0.48636850126E+02 -0.48388845021E+01  0.10565931202E+03  0.20852301602E+03  0.17300000000E+03 0. -1.
<mgrwt>
<rscale>  2 0.17977196E+03</rscale>
<asrwt>0</asrwt>
<pdfrwt beam="1">  1       21 0.45851628E-01 0.17977196E+03</pdfrwt>
<pdfrwt beam="2">  1       21 0.16731660E-01 0.17977196E+03</pdfrwt>
<totfact> 0.14708094E+05</totfact>
</mgrwt>
</event>
<event>
 4    1  0.4349106E+000  0.1828140E+03  0.7546771E-02  0.1165107E+00
         21   -1    0    0  501  502  0.00000000000E+00  0.00000000000E+00  0.66640932552E+03  0.66640932552E+03  0.00000000000E+00 0. -1.
         21   -1    0    0  502  503 -0.00000000000E+00 -0.00000000000E+00 -0.13731913560E+03  0.13731913560E+03  0.00000000000E+00 0. -1.
          6    1    1    2  501    0  0.54379024505E+02 -0.23127210861E+02  0.58472439647E+03  0.61263656928E+03  0.17300000000E+03 0. -1.
         -6    1    1    2    0  503 -0.54379024505E+02  0.23127210861E+02 -0.55634206560E+02  0.19109189184E+03  0.17300000000E+03 0. -1.
<mgrwt>
<rscale>  2 0.18281397E+03</rscale>
<asrwt>0</asrwt>
<pdfrwt beam="1">  1       21 0.10252451E+00 0.18281397E+03</pdfrwt>
<pdfrwt beam="2">  1       21 0.21126021E-01 0.18281397E+03</pdfrwt>
<totfact> 0.16218738E+04</totfact>
</mgrwt>
</event>
<event>
 4    1  0.4349106E+000  0.1748987E+03  0.7546771E-02  0.1172833E+00
         21   -1    0    0  503  502  0.00000000000E+00  0.00000000000E+00  0.10440910321E+04  0.10440910321E+04  0.00000000000E+00 0.  1.
         21   -1    0    0  501  503 -0.00000000000E+00 -0.00000000000E+00 -0.29301960747E+02  0.29301960747E+02  0.00000000000E+00 0.  1.
          6    1    1    2  501    0 -0.99380394142E+01  0.23701895466E+02  0.51380884745E+03  0.54276060671E+03  0.17300000000E+03 0. -1.
         -6    1    1    2    0  502  0.99380394142E+01 -0.23701895466E+02  0.50098022387E+03  0.53063238610E+03  0.17300000000E+03 0. -1.
<mgrwt>
<rscale>  2 0.17489867E+03</rscale>
<asrwt>0</asrwt>
<pdfrwt beam="1">  1       21 0.16062936E+00 0.17489867E+03</pdfrwt>
<pdfrwt beam="2">  1       21 0.45079948E-02 0.17489867E+03</pdfrwt>
<totfact> 0.80564984E+04</totfact>
</mgrwt>
</event>
<event>
 4    1  0.4349106E+000  0.1821642E+03  0.7546771E-02  0.1165725E+00
         21   -1    0    0  503  502  0.00000000000E+00  0.00000000000E+00  0.50121380738E+03  0.50121380738E+03  0.00000000000E+00 0.  1.
         21   -1    0    0  501  503 -0.00000000000E+00 -0.00000000000E+00 -0.25815811840E+03  0.25815811840E+03  0.00000000000E+00 0.  1.
          6    1    1    2  501    0 -0.56087847998E+02  0.10437975255E+02 -0.20587098092E+03  0.27489390464E+03  0.17300000000E+03 0.  1.
         -6    1    1    2    0  502  0.56087847998E+02 -0.10437975255E+02  0.44892666990E+03  0.48447802114E+03  0.17300000000E+03 0.  1.
<mgrwt>
<rscale>  2 0.18216421E+03</rscale>
<asrwt>0</asrwt>
<pdfrwt beam="1">  1       21 0.77109816E-01 0.18216421E+03</pdfrwt>
<pdfrwt beam="2">  1       21 0.39716634E-01 0.18216421E+03</pdfrwt>
<totfact> 0.91983671E+03</totfact>
</mgrwt>
</event>
<event>
 4    1  0.4349106E+000  0.2859232E+03  0.7546771E-02  0.1092497E+00
         21   -1    0    0  501  502  0.00000000000E+00  0.00000000000E+00  0.45867131688E+03  0.45867131688E+03  0.00000000000E+00 0. -1.
         21   -1    0    0  502  503 -0.00000000000E+00 -0.00000000000E+00 -0.22757730852E+03  0.22757730852E+03  0.00000000000E+00 0. -1.
          6    1    1    2  501    0 -0.53703270004E+02  0.22122170948E+03  0.27531472266E+03  0.39692604156E+03  0.17300000000E+03 0. -1.
         -6    1    1    2    0  503  0.53703270004E+02 -0.22122170948E+03 -0.44220714298E+02  0.28932258385E+03  0.17300000000E+03 0. -1.
<mgrwt>
<rscale>  2 0.28592322E+03</rscale>
<asrwt>0</asrwt>
<pdfrwt beam="1">  1       21 0.70564817E-01 0.28592322E+03</pdfrwt>
<pdfrwt beam="2">  1       21 0.35011894E-01 0.28592322E+03</pdfrwt>
<totfact> 0.13600829E+04</totfact>
</mgrwt>
</event>
<event>
 4    1  0.4349106E+000  0.1871068E+03  0.7546771E-02  0.1161097E+00
         21   -1    0    0  503  502  0.00000000000E+00  0.00000000000E+00  0.51376544676E+02  0.51376544676E+02  0.00000000000E+00 0.  1.
         21   -1    0    0  501  503 -0.00000000000E+00 -0.00000000000E+00 -0.14659293974E+04  0.14659293974E+04  0.00000000000E+00 0.  1.
          6    1    1    2  501    0  0.34558944616E+02  0.62334756511E+02 -0.12622675638E+04  0.12760596950E+04  0.17300000000E+03 0.  1.
         -6    1    1    2    0  502 -0.34558944616E+02 -0.62334756511E+02 -0.15228528896E+03  0.24124624713E+03  0.17300000000E+03 0.  1.
<mgrwt>
<rscale>  2 0.18710677E+03</rscale>
<asrwt>0</asrwt>
<pdfrwt beam="1">  1       21 0.79040845E-02 0.18710677E+03</pdfrwt>
<pdfrwt beam="2">  1       21 0.22552758E+00 0.18710677E+03</pdfrwt>
<totfact> 0.11462886E+04</totfact>
</mgrwt>
</event>
<event>
 4    1  0.4349106E+000  0.2166271E+03  0.7546771E-02  0.1136423E+00
         21   -1    0    0  503  502  0.00000000000E+00  0.00000000000E+00  0.12292045016E+03  0.12292045016E+03  0.00000000000E+00 0.  1.
         21   -1    0    0  501  503 -0.00000000000E+00 -0.00000000000E+00 -0.12119787491E+04  0.12119787491E+04  0.00000000000E+00 0. -1.
          6    1    1    2  501    0 -0.98060649925E+02  0.85920824836E+02 -0.10969432521E+04  0.11181286946E+04  0.17300000000E+03 0. -1.
         -6    1    1    2    0  502  0.98060649925E+02 -0.85920824836E+02  0.78849532241E+01  0.21677050466E+03  0.17300000000E+03 0.  1.
<mgrwt>
<rscale>  2 0.21662705E+03</rscale>
<asrwt>0</asrwt>
<pdfrwt beam="1">  1       21 0.18910839E-01 0.21662705E+03</pdfrwt>
<pdfrwt beam="2">  1       21 0.18645827E+00 0.21662705E+03</pdfrwt>
<totfact> 0.41287251E+03</totfact>
</mgrwt>
</event>
<event>
 4    1  0.4349106E+000  0.1920575E+03  0.7546771E-02  0.1156619E+00
         21   -1    0    0  501  502  0.00000000000E+00  0.00000000000E+00  0.20321828624E+03  0.20321828624E+03  0.00000000000E+00 0. -1.
         21   -1    0    0  502  503 -0.00000000000E+00 -0.00000000000E+00 -0.22165750318E+03  0.22165750318E+03  0.00000000000E+00 0. -1.
          6    1    1    2  501    0 -0.61970269547E+02 -0.55828125352E+02  0.81191452278E+02  0.20851413816E+03  0.17300000000E+03 0.  1.
         -6    1    1    2    0  503  0.61970269547E+02  0.55828125352E+02 -0.99630669217E+02  0.21636165126E+03  0.17300000000E+03 0.  1.
<mgrwt>
<rscale>  2 0.19205753E+03</rscale>
<asrwt>0</asrwt>
<pdfrwt beam="1">  1       21 0.31264352E-01 0.19205753E+03</pdfrwt>
<pdfrwt beam="2">  1       21 0.34101154E-01 0.19205753E+03</pdfrwt>
<totfact> 0.81477532E+04</totfact>
</mgrwt>
</event>
<event>
 4    1  0.4349106E+000  0.1946526E+03  0.7546771E-02  0.1154331E+00
         21   -1    0    0  503  502  0.00000000000E+00  0.00000000000E+00  0.18382372018E+03  0.18382372018E+03  0.00000000000E+00 0. -1.
         21   -1    0    0  501  503 -0.00000000000E+00 -0.00000000000E+00 -0.25370122314E+03  0.25370122314E+03  0.00000000000E+00 0. -1.
          6    1    1    2  501    0  0.40105887436E+02 -0.79700372252E+02 -0.12967848608E+03  0.23389344005E+03  0.17300000000E+03 0. -1.
         -6    1    1    2    0  502 -0.40105887436E+02  0.79700372252E+02  0.59800983114E+02  0.20363150327E+03  0.17300000000E+03 0. -1.
<mgrwt>
<rscale>  2 0.19465259E+03</rscale>
<asrwt>0</asrwt>
<pdfrwt beam="1">  1       21 0.28280572E-01 0.19465259E+03</pdfrwt>
<pdfrwt beam="2">  1       21 0.39030957E-01 0.19465259E+03</pdfrwt>
<totfact> 0.75573252E+04</totfact>
</mgrwt>
</event>
<event>
 4    1  0.4349106E+000  0.2365254E+03  0.7546771E-02  0.1122129E+00
         21   -1    0    0  503  502  0.00000000000E+00  0.00000000000E+00  0.28204317593E+03  0.28204317593E+03  0.00000000000E+00 0.  1.
         21   -1    0    0  501  503 -0.00000000000E+00 -0.00000000000E+00 -0.31494172692E+03  0.31494172692E+03  0.00000000000E+00 0. -1.
          6    1    1    2  501    0  0.25838286002E+02 -0.15920939906E+03 -0.19806172164E+03  0.30850072180E+03  0.17300000000E+03 0. -1.
         -6    1    1    2    0  502 -0.25838286002E+02  0.15920939906E+03  0.16516317065E+03  0.28848418104E+03  0.17300000000E+03 0.  1.
<mgrwt>
<rscale>  2 0.23652537E+03</rscale>
<asrwt>0</asrwt>
<pdfrwt beam="1">  1       21 0.43391258E-01 0.23652537E+03</pdfrwt>
<pdfrwt beam="2">  1       21 0.48452573E-01 0.23652537E+03</pdfrwt>
<totfact> 0.20264817E+04</totfact>
</mgrwt>
</event>
<event>
 4    1  0.4349106E+000  0.1856296E+03  0.7546771E-02  0.1162463E+00
         21   -1    0    0  503  502  0.00000000000E+00  0.00000000000E+00  0.22369891235E+03  0.22369891235E+03  0.00000000000E+00 0.  1.
         21   -1    0    0  501  503 -0.00000000000E+00 -0.00000000000E+00 -0.17025163449E+03  0.17025163449E+03  0.00000000000E+00 0.  1.
          6    1    1    2  501    0 -0.18610343448E+02 -0.64676106616E+02  0.87508250788E+02  0.20522192282E+03  0.17300000000E+03 0.  1.
         -6    1    1    2    0  502  0.18610343448E+02  0.64676106616E+02 -0.34060972925E+02  0.18872862403E+03  0.17300000000E+03 0.  1.
<mgrwt>
<rscale>  2 0.18562959E+03</rscale>
<asrwt>0</asrwt>
<pdfrwt beam="1">  1       21 0.34415217E-01 0.18562959E+03</pdfrwt>
<pdfrwt beam="2">  1       21 0.26192559E-01 0.18562959E+03</pdfrwt>
<totfact> 0.11301342E+05</totfact>
</mgrwt>
</event>
<event>
 4    1  0.4349106E+000  0.2021229E+03  0.7546771E-02  0.1147960E+00
         21   -1    0    0  503  502  0.00000000000E+00  0.00000000000E+00  0.12796474416E+03  0.12796474416E+03  0.00000000000E+00 0. -1.
         21   -1    0    0  501  503 -0.00000000000E+00 -0.00000000000E+00 -0.32358978503E+03  0.32358978503E+03  0.00000000000E+00 0.  1.
          6    1    1    2  501    0  0.92293676856E+02  0.49056584413E+02 -0.12393739780E+03  0.23709523368E+03  0.17300000000E+03 0. -1.
         -6    1    1    2    0  502 -0.92293676856E+02 -0.49056584413E+02 -0.71687643077E+02  0.21445929551E+03  0.17300000000E+03 0.  1.
<mgrwt>
<rscale>  2 0.20212291E+03</rscale>
<asrwt>0</asrwt>
<pdfrwt beam="1">  1       21 0.19686884E-01 0.20212291E+03</pdfrwt>
<pdfrwt beam="2">  1       21 0.49783043E-01 0.20212291E+03</pdfrwt>
<totfact> 0.91050139E+04</totfact>
</mgrwt>
</event>
<event>
 4    1  0.4349106E+000  0.1972953E+03  0.7546771E-02  0.1152041E+00
         21   -1    0    0  503  502  0.00000000000E+00  0.00000000000E+00  0.48000850197E+02  0.48000850197E+02  0.00000000000E+00 0.  1.
         21   -1    0    0  501  503 -0.00000000000E+00 -0.00000000000E+00 -0.13906884025E+04  0.13906884025E+04  0.00000000000E+00 0.  1.
          6    1    1    2  501    0 -0.24850775874E+02 -0.91536206792E+02 -0.11357999759E+04  0.11528083203E+04  0.17300000000E+03 0.  1.
         -6    1    1    2    0  502  0.24850775874E+02  0.91536206792E+02 -0.20688757644E+03  0.28588093239E+03  0.17300000000E+03 0.  1.
<mgrwt>
<rscale>  2 0.19729531E+03</rscale>
<asrwt>0</asrwt>
<pdfrwt beam="1">  1       21 0.73847470E-02 0.19729531E+03</pdfrwt>
<pdfrwt beam="2">  1       21 0.21395204E+00 0.19729531E+03</pdfrwt>
<totfact> 0.15060013E+04</totfact>
</mgrwt>
</event>
<event>
 4    1  0.4349106E+000  0.1798948E+03  0.7546771E-02  0.1167905E+00
         21   -1    0    0  503  502  0.00000000000E+00  0.00000000000E+00  0.10639911914E+03  0.10639911914E+03  0.00000000000E+00 0.  1.
         21   -1    0    0  501  503 -0.00000000000E+00 -0.00000000000E+00 -0.34115115618E+03  0.34115115618E+03  0.00000000000E+00 0.  1.
          6    1    1    2  501    0  0.43723433261E+02  0.22834140044E+02 -0.43687559854E+02  0.18512357887E+03  0.17300000000E+03 0. -1.
         -6    1    1    2    0  502 -0.43723433261E+02 -0.22834140044E+02 -0.19106447719E+03  0.26242669645E+03  0.17300000000E+03 0. -1.
<mgrwt>
<rscale>  2 0.17989479E+03</rscale>
<asrwt>0</asrwt>
<pdfrwt beam="1">  1       21 0.16369095E-01 0.17989479E+03</pdfrwt>
<pdfrwt beam="2">  1       21 0.52484794E-01 0.17989479E+03</pdfrwt>
<totfact> 0.11565744E+05</totfact>
</mgrwt>
</event>
<event>
 4    1  0.4349106E+000  0.2024833E+03  0.7546771E-02  0.1147661E+00
         21   -1    0    0  503  502  0.00000000000E+00  0.00000000000E+00  0.60100994213E+02  0.60100994213E+02  0.00000000000E+00 0.  1.
         21   -1    0    0  501  503 -0.00000000000E+00 -0.00000000000E+00 -0.19657005715E+04  0.19657005715E+04  0.00000000000E+00 0.  1.
          6    1    1    2  501    0  0.10208233338E+03  0.25488689742E+02 -0.17712839154E+04  0.17828197287E+04  0.17300000000E+03 0.  1.
         -6    1    1    2    0  502 -0.10208233338E+03 -0.25488689742E+02 -0.13431566190E+03  0.24298183703E+03  0.17300000000E+03 0.  1.
<mgrwt>
<rscale>  2 0.20248327E+03</rscale>
<asrwt>0</asrwt>
<pdfrwt beam="1">  1       21 0.92463057E-02 0.20248327E+03</pdfrwt>
<pdfrwt beam="2">  1       21 0.30241551E+00 0.20248327E+03</pdfrwt>
<totfact> 0.30438785E+03</totfact>
</mgrwt>
</event>
<event>
 4    1  0.4349106E+000  0.1962010E+03  0.7546771E-02  0.1152984E+00
         21   -1    0    0  503  502  0.00000000000E+00  0.00000000000E+00  0.63853992803E+03  0.63853992803E+03  0.00000000000E+00 0. -1.
         21   -1    0    0  501  503 -0.00000000000E+00 -0.00000000000E+00 -0.15476508724E+03  0.15476508724E+03  0.00000000000E+00 0. -1.
          6    1    1    2  501    0 -0.44113536920E+02 -0.81362355620E+02 -0.68027297861E+02  0.20765969832E+03  0.17300000000E+03 0. -1.
         -6    1    1    2    0  502  0.44113536920E+02  0.81362355620E+02  0.55180213865E+03  0.58564531695E+03  0.17300000000E+03 0. -1.
<mgrwt>
<rscale>  2 0.19620101E+03</rscale>
<asrwt>0</asrwt>
<pdfrwt beam="1">  1       21 0.98236910E-01 0.19620101E+03</pdfrwt>
<pdfrwt beam="2">  1       21 0.23810014E-01 0.19620101E+03</pdfrwt>
<totfact> 0.14197926E+04</totfact>
</mgrwt>
</event>
<event>
 4    1  0.4349106E+000  0.1741946E+03  0.7546771E-02  0.1173543E+00
         21   -1    0    0  501  502  0.00000000000E+00  0.00000000000E+00  0.12530090199E+04  0.12530090199E+04  0.00000000000E+00 0.  1.
         21   -1    0    0  502  503 -0.00000000000E+00 -0.00000000000E+00 -0.81180632832E+02  0.81180632832E+02  0.00000000000E+00 0.  1.
          6    1    1    2  501    0 -0.13595658942E+02  0.15163427557E+02  0.11447204425E+04  0.11578983820E+04  0.17300000000E+03 0.  1.
         -6    1    1    2    0  503  0.13595658942E+02 -0.15163427557E+02  0.27107944524E+02  0.17629127072E+03  0.17300000000E+03 0.  1.
<mgrwt>
<rscale>  2 0.17419464E+03</rscale>
<asrwt>0</asrwt>
<pdfrwt beam="1">  1       21 0.19277060E+00 0.17419464E+03</pdfrwt>
<pdfrwt beam="2">  1       21 0.12489329E-01 0.17419464E+03</pdfrwt>
<totfact> 0.83044431E+03</totfact>
</mgrwt>
</event>
<event>
 4    1  0.4349106E+000  0.1974334E+03  0.7546771E-02  0.1151923E+00
         21   -1    0    0  501  502  0.00000000000E+00  0.00000000000E+00  0.46510841994E+03  0.46510841994E+03  0.00000000000E+00 0. -1.
         21   -1    0    0  502  503 -0.00000000000E+00 -0.00000000000E+00 -0.13205504639E+03  0.13205504639E+03  0.00000000000E+00 0. -1.
          6    1    1    2  501    0 -0.79584524800E+02 -0.52127125995E+02  0.34700285707E+03  0.39923791988E+03  0.17300000000E+03 0. -1.
         -6    1    1    2    0  503  0.79584524800E+02  0.52127125995E+02 -0.13949483520E+02  0.19792554646E+03  0.17300000000E+03 0. -1.
<mgrwt>
<rscale>  2 0.19743337E+03</rscale>
<asrwt>0</asrwt>
<pdfrwt beam="1">  1       21 0.71555140E-01 0.19743337E+03</pdfrwt>
<pdfrwt beam="2">  1       21 0.20316161E-01 0.19743337E+03</pdfrwt>
<totfact> 0.39468483E+04</totfact>
</mgrwt>
</event>
<event>
 4    1  0.4349106E+000  0.1880515E+03  0.7546771E-02  0.1160231E+00
         21   -1    0    0  501  502  0.00000000000E+00  0.00000000000E+00  0.54034239661E+02  0.54034239661E+02  0.00000000000E+00 0.  1.
         21   -1    0    0  502  503 -0.00000000000E+00 -0.00000000000E+00 -0.67256088562E+03  0.67256088562E+03  0.00000000000E+00 0. -1.
          6    1    1    2  501    0 -0.62583162168E+02 -0.38957821677E+02 -0.24966679850E+03  0.31256499217E+03  0.17300000000E+03 0.  1.
         -6    1    1    2    0  503  0.62583162168E+02  0.38957821677E+02 -0.36885984747E+03  0.41403013312E+03  0.17300000000E+03 0.  1.
<mgrwt>
<rscale>  2 0.18805149E+03</rscale>
<asrwt>0</asrwt>
<pdfrwt beam="1">  1       21 0.83129603E-02 0.18805149E+03</pdfrwt>
<pdfrwt beam="2">  1       21 0.10347090E+00 0.18805149E+03</pdfrwt>
<totfact> 0.85109001E+04</totfact>
</mgrwt>
</event>
<event>
 4    1  0.4349106E+000  0.1785192E+03  0.7546771E-02  0.1169244E+00
         21   -1    0    0  501  502  0.00000000000E+00  0.00000000000E+00  0.44044870168E+03  0.44044870168E+03  0.00000000000E+00 0. -1.
         21   -1    0    0  502  503 -0.00000000000E+00 -0.00000000000E+00 -0.78872486220E+02  0.78872486220E+02  0.00000000000E+00 0.  1.
          6    1    1    2  501    0 -0.22627531663E+02  0.37790163187E+02  0.25542445420E+03  0.31162598323E+03  0.17300000000E+03 0. -1.
         -6    1    1    2    0  503  0.22627531663E+02 -0.37790163187E+02  0.10615176126E+03  0.20769520467E+03  0.17300000000E+03 0.  1.
<mgrwt>
<rscale>  2 0.17851919E+03</rscale>
<asrwt>0</asrwt>
<pdfrwt beam="1">  1       21 0.67761337E-01 0.17851919E+03</pdfrwt>
<pdfrwt beam="2">  1       21 0.12134229E-01 0.17851919E+03</pdfrwt>
<totfact> 0.11508400E+05</totfact>
</mgrwt>
</event>
<event>
 4    1  0.4349106E+000  0.2054445E+03  0.7546771E-02  0.1145225E+00
         21   -1    0    0  501  502  0.00000000000E+00  0.00000000000E+00  0.40004793421E+03  0.40004793421E+03  0.00000000000E+00 0. -1.
         21   -1    0    0  502  503 -0.00000000000E+00 -0.00000000000E+00 -0.13796030464E+03  0.13796030464E+03  0.00000000000E+00 0. -1.
          6    1    1    2  501    0 -0.27041182681E+02  0.10745804626E+03  0.57160624284E+00  0.20544533093E+03  0.17300000000E+03 0. -1.
         -6    1    1    2    0  503  0.27041182681E+02 -0.10745804626E+03  0.26151602333E+03  0.33256290792E+03  0.17300000000E+03 0. -1.
<mgrwt>
<rscale>  2 0.20544454E+03</rscale>
<asrwt>0</asrwt>
<pdfrwt beam="1">  1       21 0.61545836E-01 0.20544454E+03</pdfrwt>
<pdfrwt beam="2">  1       21 0.21224662E-01 0.20544454E+03</pdfrwt>
<totfact> 0.50344917E+04</totfact>
</mgrwt>
</event>
<event>
 4    1  0.4349106E+000  0.2873625E+03  0.7546771E-02  0.1091734E+00
         21   -1    0    0  501  502  0.00000000000E+00  0.00000000000E+00  0.17494637924E+03  0.17494637924E+03  0.00000000000E+00 0. -1.
         21   -1    0    0  502  503 -0.00000000000E+00 -0.00000000000E+00 -0.11845170316E+04  0.11845170316E+04  0.00000000000E+00 0. -1.
          6    1    1    2  501    0 -0.58149731688E+02  0.22196128528E+03  0.22396124680E+02  0.28823391518E+03  0.17300000000E+03 0. -1.
         -6    1    1    2    0  503  0.58149731688E+02 -0.22196128528E+03 -0.10319667770E+04  0.10712294957E+04  0.17300000000E+03 0. -1.
<mgrwt>
<rscale>  2 0.28736249E+03</rscale>
<asrwt>0</asrwt>
<pdfrwt beam="1">  1       21 0.26914826E-01 0.28736249E+03</pdfrwt>
<pdfrwt beam="2">  1       21 0.18223340E+00 0.28736249E+03</pdfrwt>
<totfact> 0.21371915E+03</totfact>
</mgrwt>
</event>
<event>
 4    1  0.4349106E+000  0.1878999E+03  0.7546771E-02  0.1160369E+00
         21   -1    0    0  503  502  0.00000000000E+00  0.00000000000E+00  0.27836055315E+03  0.27836055315E+03  0.00000000000E+00 0.  1.
         21   -1    0    0  501  503 -0.00000000000E+00 -0.00000000000E+00 -0.17758012792E+03  0.17758012792E+03  0.00000000000E+00 0. -1.
          6    1    1    2  501    0 -0.25564892821E+02 -0.68729858220E+02 -0.71472463316E+02  0.20103400252E+03  0.17300000000E+03 0. -1.
         -6    1    1    2    0  502  0.25564892821E+02  0.68729858220E+02  0.17225288854E+03  0.25490667855E+03  0.17300000000E+03 0.  1.
<mgrwt>
<rscale>  2 0.18789986E+03</rscale>
<asrwt>0</asrwt>
<pdfrwt beam="1">  1       21 0.42824700E-01 0.18789986E+03</pdfrwt>
<pdfrwt beam="2">  1       21 0.27320020E-01 0.18789986E+03</pdfrwt>
<totfact> 0.67138531E+04</totfact>
</mgrwt>
</event>
<event>
 4    1  0.4349106E+000  0.1921410E+03  0.7546771E-02  0.1156544E+00
         21   -1    0    0  501  502  0.00000000000E+00  0.00000000000E+00  0.40421067994E+02  0.40421067994E+02  0.00000000000E+00 0.  1.
         21   -1    0    0  502  503 -0.00000000000E+00 -0.00000000000E+00 -0.91352823805E+03  0.91352823805E+03  0.00000000000E+00 0.  1.
          6    1    1    2  501    0  0.37094231825E+02  0.74921143638E+02 -0.44340868383E+03  0.48324881862E+03  0.17300000000E+03 0. -1.
         -6    1    1    2    0  503 -0.37094231825E+02 -0.74921143638E+02 -0.42969848622E+03  0.47070048742E+03  0.17300000000E+03 0. -1.
<mgrwt>
<rscale>  2 0.19214099E+03</rscale>
<asrwt>0</asrwt>
<pdfrwt beam="1">  1       21 0.62186261E-02 0.19214099E+03</pdfrwt>
<pdfrwt beam="2">  1       21 0.14054280E+00 0.19214099E+03</pdfrwt>
<totfact> 0.65718410E+04</totfact>
</mgrwt>
</event>
<event>
 4    1  0.4349106E+000  0.3309554E+03  0.7546771E-02  0.1070715E+00
         21   -1    0    0  503  502  0.00000000000E+00  0.00000000000E+00  0.13840949899E+04  0.13840949899E+04  0.00000000000E+00 0. -1.
         21   -1    0    0  501  503 -0.00000000000E+00 -0.00000000000E+00 -0.11894344552E+03  0.11894344552E+03  0.00000000000E+00 0. -1.
          6    1    1    2  501    0  0.24509232462E+03 -0.13975781944E+03  0.19781239329E+03  0.38556612743E+03  0.17300000000E+03 0. -1.
         -6    1    1    2    0  502 -0.24509232462E+03  0.13975781944E+03  0.10673391511E+04  0.11174723080E+04  0.17300000000E+03 0. -1.
<mgrwt>
<rscale>  2 0.33095543E+03</rscale>
<asrwt>0</asrwt>
<pdfrwt beam="1">  1       21 0.21293768E+00 0.33095543E+03</pdfrwt>
<pdfrwt beam="2">  1       21 0.18298993E-01 0.33095543E+03</pdfrwt>
<totfact> 0.27202570E+03</totfact>
</mgrwt>
</event>
<event>
 4    1  0.4349106E+000  0.1935490E+03  0.7546771E-02  0.1155299E+00
         21   -1    0    0  503  502  0.00000000000E+00  0.00000000000E+00  0.74545754075E+03  0.74545754075E+03  0.00000000000E+00 0. -1.
         21   -1    0    0  501  503 -0.00000000000E+00 -0.00000000000E+00 -0.10516970463E+03  0.10516970463E+03  0.00000000000E+00 0. -1.
          6    1    1    2  501    0 -0.83049817591E+02 -0.25197860758E+02  0.12804934379E+02  0.19397208751E+03  0.17300000000E+03 0. -1.
         -6    1    1    2    0  502  0.83049817591E+02  0.25197860758E+02  0.62748290174E+03  0.65665515788E+03  0.17300000000E+03 0. -1.
<mgrwt>
<rscale>  2 0.19354897E+03</rscale>
<asrwt>0</asrwt>
<pdfrwt beam="1">  1       21 0.11468577E+00 0.19354897E+03</pdfrwt>
<pdfrwt beam="2">  1       21 0.16179955E-01 0.19354897E+03</pdfrwt>
<totfact> 0.20151111E+04</totfact>
</mgrwt>
</event>
<event>
 4    1  0.4349106E+000  0.1926287E+03  0.7546771E-02  0.1156112E+00
         21   -1    0    0  501  502  0.00000000000E+00  0.00000000000E+00  0.76326336872E+03  0.76326336872E+03  0.00000000000E+00 0. -1.
         21   -1    0    0  502  503 -0.00000000000E+00 -0.00000000000E+00 -0.48783150604E+02  0.48783150604E+02  0.00000000000E+00 0.  1.
          6    1    1    2  501    0  0.21564508578E+02  0.81925416075E+02  0.33337944963E+03  0.38502942649E+03  0.17300000000E+03 0. -1.
         -6    1    1    2    0  503 -0.21564508578E+02 -0.81925416075E+02  0.38110076849E+03  0.42701709283E+03  0.17300000000E+03 0.  1.
<mgrwt>
<rscale>  2 0.19262866E+03</rscale>
<asrwt>0</asrwt>
<pdfrwt beam="1">  1       21 0.11742512E+00 0.19262866E+03</pdfrwt>
<pdfrwt beam="2">  1       21 0.75051007E-02 0.19262866E+03</pdfrwt>
<totfact> 0.74705567E+04</totfact>
</mgrwt>
</event>
<event>
 4    1  0.4349106E+000  0.1909769E+03  0.7546771E-02  0.1157583E+00
         21   -1    0    0  501  502  0.00000000000E+00  0.00000000000E+00  0.39127006776E+03  0.39127006776E+03  0.00000000000E+00 0.  1.
         21   -1    0    0  502  503 -0.00000000000E+00 -0.00000000000E+00 -0.10447736703E+03  0.10447736703E+03  0.00000000000E+00 0.  1.
          6    1    1    2  501    0  0.68992982660E+02  0.42227412604E+02  0.22477993909E+03  0.29495458472E+03  0.17300000000E+03 0.  1.
         -6    1    1    2    0  503 -0.68992982660E+02 -0.42227412604E+02  0.62012761635E+02  0.20079285006E+03  0.17300000000E+03 0.  1.
<mgrwt>
<rscale>  2 0.19097693E+03</rscale>
<asrwt>0</asrwt>
<pdfrwt beam="1">  1       21 0.60195394E-01 0.19097693E+03</pdfrwt>
<pdfrwt beam="2">  1       21 0.16073441E-01 0.19097693E+03</pdfrwt>
<totfact> 0.89035058E+04</totfact>
</mgrwt>
</event>
<event>
 4    1  0.4349106E+000  0.2101050E+03  0.7546771E-02  0.1141483E+00
         21   -1    0    0  503  502  0.00000000000E+00  0.00000000000E+00  0.14939049185E+04  0.14939049185E+04  0.00000000000E+00 0.  1.
         21   -1    0    0  501  503 -0.00000000000E+00 -0.00000000000E+00 -0.90282747094E+02  0.90282747094E+02  0.00000000000E+00 0. -1.
          6    1    1    2  501    0 -0.77083531881E+02  0.90957424920E+02  0.52148963816E+02  0.21648011101E+03  0.17300000000E+03 0. -1.
         -6    1    1    2    0  502  0.77083531881E+02 -0.90957424920E+02  0.13514732076E+04  0.13677075546E+04  0.17300000000E+03 0.  1.
<mgrwt>
<rscale>  2 0.21010503E+03</rscale>
<asrwt>0</asrwt>
<pdfrwt beam="1">  1       21 0.22983151E+00 0.21010503E+03</pdfrwt>
<pdfrwt beam="2">  1       21 0.13889655E-01 0.21010503E+03</pdfrwt>
<totfact> 0.38860512E+03</totfact>
</mgrwt>
</event>
<event>
 4    1  0.4349106E+000  0.2134240E+03  0.7546771E-02  0.1138883E+00
         21   -1    0    0  503  502  0.00000000000E+00  0.00000000000E+00  0.35194116139E+03  0.35194116139E+03  0.00000000000E+00 0. -1.
         21   -1    0    0  501  503 -0.00000000000E+00 -0.00000000000E+00 -0.26485668646E+03  0.26485668646E+03  0.00000000000E+00 0. -1.
          6    1    1    2  501    0 -0.61167061300E+02 -0.10899263131E+03 -0.17698810637E+03  0.27726267845E+03  0.17300000000E+03 0. -1.
         -6    1    1    2    0  502  0.61167061300E+02  0.10899263131E+03  0.26407258130E+03  0.33953516940E+03  0.17300000000E+03 0. -1.
<mgrwt>
<rscale>  2 0.21342400E+03</rscale>
<asrwt>0</asrwt>
<pdfrwt beam="1">  1       21 0.54144794E-01 0.21342400E+03</pdfrwt>
<pdfrwt beam="2">  1       21 0.40747183E-01 0.21342400E+03</pdfrwt>
<totfact> 0.18475490E+04</totfact>
</mgrwt>
</event>
<event>
 4    1  0.4349106E+000  0.1801067E+03  0.7546771E-02  0.1167700E+00
         21   -1    0    0  503  502  0.00000000000E+00  0.00000000000E+00  0.22301187691E+02  0.22301187691E+02  0.00000000000E+00 0. -1.
         21   -1    0    0  501  503 -0.00000000000E+00 -0.00000000000E+00 -0.17091404098E+04  0.17091404098E+04  0.00000000000E+00 0. -1.
          6    1    1    2  501    0  0.46304469474E+02 -0.19113784378E+02 -0.11775381023E+04  0.11912323128E+04  0.17300000000E+03 0. -1.
         -6    1    1    2    0  502 -0.46304469474E+02  0.19113784378E+02 -0.50930111979E+03  0.54020928469E+03  0.17300000000E+03 0. -1.
<mgrwt>
<rscale>  2 0.18010675E+03</rscale>
<asrwt>0</asrwt>
<pdfrwt beam="1">  1       21 0.34309529E-02 0.18010675E+03</pdfrwt>
<pdfrwt beam="2">  1       21 0.26294461E+00 0.18010675E+03</pdfrwt>
<totfact> 0.28601833E+04</totfact>
</mgrwt>
</event>
<event>
 4    1  0.4349106E+000  0.1853963E+03  0.7546771E-02  0.1162680E+00
         21   -1    0    0  503  502  0.00000000000E+00  0.00000000000E+00  0.16793044907E+04  0.16793044907E+04  0.00000000000E+00 0.  1.
         21   -1    0    0  501  503 -0.00000000000E+00 -0.00000000000E+00 -0.23064891272E+02  0.23064891272E+02  0.00000000000E+00 0.  1.
          6    1    1    2  501    0  0.59476494676E+02  0.30088910455E+02  0.54250194263E+03  0.57330633497E+03  0.17300000000E+03 0.  1.
         -6    1    1    2    0  502 -0.59476494676E+02 -0.30088910455E+02  0.11137376568E+04  0.11290630470E+04  0.17300000000E+03 0.  1.
<mgrwt>
<rscale>  2 0.18539632E+03</rscale>
<asrwt>0</asrwt>
<pdfrwt beam="1">  1       21 0.25835444E+00 0.18539632E+03</pdfrwt>
<pdfrwt beam="2">  1       21 0.35484461E-02 0.18539632E+03</pdfrwt>
<totfact> 0.28619199E+04</totfact>
</mgrwt>
</event>
<event>
 4    1  0.4349106E+000  0.2275925E+03  0.7546771E-02  0.1128346E+00
         21   -1    0    0  503  502  0.00000000000E+00  0.00000000000E+00  0.11066340475E+03  0.11066340475E+03  0.00000000000E+00 0. -1.
         21   -1    0    0  501  503 -0.00000000000E+00 -0.00000000000E+00 -0.49706043987E+03  0.49706043987E+03  0.00000000000E+00 0.  1.
          6    1    1    2  501    0 -0.13661597763E+03  0.56616446963E+02 -0.11981636446E+03  0.25720479895E+03  0.17300000000E+03 0. -1.
         -6    1    1    2    0  502  0.13661597763E+03 -0.56616446963E+02 -0.26658067066E+03  0.35051904567E+03  0.17300000000E+03 0.  1.
<mgrwt>
<rscale>  2 0.22759250E+03</rscale>
<asrwt>0</asrwt>
<pdfrwt beam="1">  1       21 0.17025139E-01 0.22759250E+03</pdfrwt>
<pdfrwt beam="2">  1       21 0.76470837E-01 0.22759250E+03</pdfrwt>
<totfact> 0.46569040E+04</totfact>
</mgrwt>
</event>
<event>
 4    1  0.4349106E+000  0.2465660E+03  0.7546771E-02  0.1115494E+00
         21   -1    0    0  503  502  0.00000000000E+00  0.00000000000E+00  0.18820883733E+03  0.18820883733E+03  0.00000000000E+00 0. -1.
         21   -1    0    0  501  503 -0.00000000000E+00 -0.00000000000E+00 -0.36250402066E+03  0.36250402066E+03  0.00000000000E+00 0. -1.
          6    1    1    2  501    0 -0.16760904075E+03 -0.52659204664E+02  0.37311363085E+01  0.24659420868E+03  0.17300000000E+03 0. -1.
         -6    1    1    2    0  502  0.16760904075E+03  0.52659204664E+02 -0.17802631964E+03  0.30411864932E+03  0.17300000000E+03 0. -1.
<mgrwt>
<rscale>  2 0.24656598E+03</rscale>
<asrwt>0</asrwt>
<pdfrwt beam="1">  1       21 0.28955206E-01 0.24656598E+03</pdfrwt>
<pdfrwt beam="2">  1       21 0.55769848E-01 0.24656598E+03</pdfrwt>
<totfact> 0.33672282E+04</totfact>
</mgrwt>
</event>
<event>
 4    1  0.4349106E+000  0.2119431E+03  0.7546771E-02  0.1140036E+00
         21   -1    0    0  501  502  0.00000000000E+00  0.00000000000E+00  0.12068307341E+03  0.12068307341E+03  0.00000000000E+00 0. -1.
         21   -1    0    0  502  503 -0.00000000000E+00 -0.00000000000E+00 -0.82120099543E+03  0.82120099543E+03  0.00000000000E+00 0. -1.
          6    1    1    2  501    0  0.11141177898E+03  0.50776803668E+02 -0.20340401569E+01  0.21195283816E+03  0.17300000000E+03 0. -1.
         -6    1    1    2    0  503 -0.11141177898E+03 -0.50776803668E+02 -0.69848388187E+03  0.72993123067E+03  0.17300000000E+03 0. -1.
<mgrwt>
<rscale>  2 0.21194308E+03</rscale>
<asrwt>0</asrwt>
<pdfrwt beam="1">  1       21 0.18566626E-01 0.21194308E+03</pdfrwt>
<pdfrwt beam="2">  1       21 0.12633862E+00 0.21194308E+03</pdfrwt>
<totfact> 0.12149436E+04</totfact>
</mgrwt>
</event>
<event>
 4    1  0.4349106E+000  0.1856845E+03  0.7546771E-02  0.1162412E+00
         21   -1    0    0  503  502  0.00000000000E+00  0.00000000000E+00  0.10316207365E+03  0.10316207365E+03  0.00000000000E+00 0.  1.
         21   -1    0    0  501  503 -0.00000000000E+00 -0.00000000000E+00 -0.62830381745E+03  0.62830381745E+03  0.00000000000E+00 0.  1.
          6    1    1    2  501    0  0.44827939611E+02 -0.50400304237E+02 -0.51278709642E+03  0.54537082897E+03  0.17300000000E+03 0.  1.
         -6    1    1    2    0  502 -0.44827939611E+02  0.50400304237E+02 -0.12354647380E+02  0.18609506213E+03  0.17300000000E+03 0.  1.
<mgrwt>
<rscale>  2 0.18568450E+03</rscale>
<asrwt>0</asrwt>
<pdfrwt beam="1">  1       21 0.15871088E-01 0.18568450E+03</pdfrwt>
<pdfrwt beam="2">  1       21 0.96662126E-01 0.18568450E+03</pdfrwt>
<totfact> 0.31596144E+04</totfact>
</mgrwt>
</event>
<event>
 4    1  0.4349106E+000  0.1803240E+03  0.7546771E-02  0.1167490E+00
         21   -1    0    0  503  502  0.00000000000E+00  0.00000000000E+00  0.90967727324E+02  0.90967727324E+02  0.00000000000E+00 0. -1.
         21   -1    0    0  501  503 -0.00000000000E+00 -0.00000000000E+00 -0.36590942983E+03  0.36590942983E+03  0.00000000000E+00 0.  1.
          6    1    1    2  501    0 -0.37880835266E+02  0.33952901877E+02 -0.17219697899E+03  0.24933623243E+03  0.17300000000E+03 0. -1.
         -6    1    1    2    0  502  0.37880835266E+02 -0.33952901877E+02 -0.10274472351E+03  0.20754092473E+03  0.17300000000E+03 0.  1.
<mgrwt>
<rscale>  2 0.18032403E+03</rscale>
<asrwt>0</asrwt>
<pdfrwt beam="1">  1       21 0.13995035E-01 0.18032403E+03</pdfrwt>
<pdfrwt beam="2">  1       21 0.56293758E-01 0.18032403E+03</pdfrwt>
<totfact> 0.13266909E+05</totfact>
</mgrwt>
</event>
<event>
 4    1  0.4349106E+000  0.2040604E+03  0.7546771E-02  0.1146358E+00
         21   -1    0    0  503  502  0.00000000000E+00  0.00000000000E+00  0.16457037366E+03  0.16457037366E+03  0.00000000000E+00 0. -1.
         21   -1    0    0  501  503 -0.00000000000E+00 -0.00000000000E+00 -0.38847524100E+03  0.38847524100E+03  0.00000000000E+00 0.  1.
          6    1    1    2  501    0 -0.87840783068E+02 -0.63211214579E+02 -0.27523387233E+03  0.34262858214E+03  0.17300000000E+03 0.  1.
         -6    1    1    2    0  502  0.87840783068E+02  0.63211214579E+02  0.51329004992E+02  0.21041703251E+03  0.17300000000E+03 0. -1.
<mgrwt>
<rscale>  2 0.20406043E+03</rscale>
<asrwt>0</asrwt>
<pdfrwt beam="1">  1       21 0.25318519E-01 0.20406043E+03</pdfrwt>
<pdfrwt beam="2">  1       21 0.59765421E-01 0.20406043E+03</pdfrwt>
<totfact> 0.38404331E+04</totfact>
</mgrwt>
</event>
<event>
 4    1  0.4349106E+000  0.2016079E+03  0.7546771E-02  0.1148389E+00
         21   -1    0    0  503  502  0.00000000000E+00  0.00000000000E+00  0.27101234171E+03  0.27101234171E+03  0.00000000000E+00 0. -1.
         21   -1    0    0  501  503 -0.00000000000E+00 -0.00000000000E+00 -0.16975257217E+03  0.16975257217E+03  0.00000000000E+00 0. -1.
          6    1    1    2  501    0  0.52336067742E+02 -0.89317873175E+02 -0.24589220259E+02  0.20310188627E+03  0.17300000000E+03 0. -1.
         -6    1    1    2    0  502 -0.52336067742E+02  0.89317873175E+02  0.12584898981E+03  0.23766302761E+03  0.17300000000E+03 0. -1.
<mgrwt>
<rscale>  2 0.20160790E+03</rscale>
<asrwt>0</asrwt>
<pdfrwt beam="1">  1       21 0.41694206E-01 0.20160790E+03</pdfrwt>
<pdfrwt beam="2">  1       21 0.26115780E-01 0.20160790E+03</pdfrwt>
<totfact> 0.76857435E+04</totfact>
</mgrwt>
</event>
<event>
 4    1  0.4349106E+000  0.1850539E+03  0.7546771E-02  0.1163000E+00
         21   -1    0    0  501  502  0.00000000000E+00  0.00000000000E+00  0.58089140145E+02  0.58089140145E+02  0.00000000000E+00 0. -1.
         21   -1    0    0  502  503 -0.00000000000E+00 -0.00000000000E+00 -0.18036092096E+04  0.18036092096E+04  0.00000000000E+00 0. -1.
          6    1    1    2  501    0 -0.62130672039E+02 -0.21347368777E+02 -0.10904258050E+03  0.21479109601E+03  0.17300000000E+03 0. -1.
         -6    1    1    2    0  503  0.62130672039E+02  0.21347368777E+02 -0.16364774889E+04  0.16469072537E+04  0.17300000000E+03 0. -1.
<mgrwt>
<rscale>  2 0.18505386E+03</rscale>
<asrwt>0</asrwt>
<pdfrwt beam="1">  1       21 0.89367914E-02 0.18505386E+03</pdfrwt>
<pdfrwt beam="2">  1       21 0.27747832E+00 0.18505386E+03</pdfrwt>
<totfact> 0.45904827E+03</totfact>
</mgrwt>
</event>
<event>
 4    1  0.4349106E+000  0.2049781E+03  0.7546771E-02  0.1145606E+00
         21   -1    0    0  501  502  0.00000000000E+00  0.00000000000E+00  0.18028033973E+02  0.18028033973E+02  0.00000000000E+00 0. -1.
         21   -1    0    0  502  503 -0.00000000000E+00 -0.00000000000E+00 -0.23621480166E+04  0.23621480166E+04  0.00000000000E+00 0. -1.
          6    1    1    2  501    0  0.10284225945E+03  0.38864775819E+02 -0.10345092165E+04  0.10546209367E+04  0.17300000000E+03 0. -1.
         -6    1    1    2    0  503 -0.10284225945E+03 -0.38864775819E+02 -0.13096107661E+04  0.13255551138E+04  0.17300000000E+03 0. -1.
<mgrwt>
<rscale>  2 0.20497805E+03</rscale>
<asrwt>0</asrwt>
<pdfrwt beam="1">  1       21 0.27735433E-02 0.20497805E+03</pdfrwt>
<pdfrwt beam="2">  1       21 0.36340744E+00 0.20497805E+03</pdfrwt>
<totfact> 0.10335550E+04</totfact>
</mgrwt>
</event>
<event>
 4    1  0.4349106E+000  0.2633043E+03  0.7546771E-02  0.1105174E+00
         21   -1    0    0  503  502  0.00000000000E+00  0.00000000000E+00  0.14121747770E+03  0.14121747770E+03  0.00000000000E+00 0. -1.
         21   -1    0    0  501  503 -0.00000000000E+00 -0.00000000000E+00 -0.10404343750E+04  0.10404343750E+04  0.00000000000E+00 0. -1.
          6    1    1    2  501    0 -0.19491394924E+03  0.37532819626E+02 -0.87898096178E+03  0.91757108244E+03  0.17300000000E+03 0. -1.
         -6    1    1    2    0  502  0.19491394924E+03 -0.37532819626E+02 -0.20235935558E+02  0.26408077030E+03  0.17300000000E+03 0. -1.
<mgrwt>
<rscale>  2 0.26330431E+03</rscale>
<asrwt>0</asrwt>
<pdfrwt beam="1">  1       21 0.21725766E-01 0.26330431E+03</pdfrwt>
<pdfrwt beam="2">  1       21 0.16006682E+00 0.26330431E+03</pdfrwt>
<totfact> 0.47113948E+03</totfact>
</mgrwt>
</event>
<event>
 4    1  0.4349106E+000  0.1894275E+03  0.7546771E-02  0.1158979E+00
         21   -1    0    0  503  502  0.00000000000E+00  0.00000000000E+00  0.89094254997E+02  0.89094254997E+02  0.00000000000E+00 0.  1.
         21   -1    0    0  501  503 -0.00000000000E+00 -0.00000000000E+00 -0.33109331561E+04  0.33109331561E+04  0.00000000000E+00 0.  1.
          6    1    1    2  501    0  0.57389634402E+02 -0.51577233230E+02 -0.32041845206E+04  0.32097789991E+04  0.17300000000E+03 0.  1.
         -6    1    1    2    0  502 -0.57389634402E+02  0.51577233230E+02 -0.17654380546E+02  0.19024841202E+03  0.17300000000E+03 0.  1.
<mgrwt>
<rscale>  2 0.18942751E+03</rscale>
<asrwt>0</asrwt>
<pdfrwt beam="1">  1       21 0.13706811E-01 0.18942751E+03</pdfrwt>
<pdfrwt beam="2">  1       21 0.50937425E+00 0.18942751E+03</pdfrwt>
<totfact> 0.75527009E+01</totfact>
</mgrwt>
</event>
<event>
 4    1  0.4349106E+000  0.2000923E+03  0.7546771E-02  0.1149661E+00
         21   -1    0    0  501  502  0.00000000000E+00  0.00000000000E+00  0.82984940564E+03  0.82984940564E+03  0.00000000000E+00 0.  1.
         21   -1    0    0  502  503 -0.00000000000E+00 -0.00000000000E+00 -0.12985910513E+03  0.12985910513E+03  0.00000000000E+00 0.  1.
          6    1    1    2  501    0 -0.96392377908E+02 -0.28573660626E+02  0.73040609349E+03  0.75731763878E+03  0.17300000000E+03 0.  1.
         -6    1    1    2    0  503  0.96392377908E+02  0.28573660626E+02 -0.30415792977E+02  0.20239087198E+03  0.17300000000E+03 0.  1.
<mgrwt>
<rscale>  2 0.20009234E+03</rscale>
<asrwt>0</asrwt>
<pdfrwt beam="1">  1       21 0.12766914E+00 0.20009234E+03</pdfrwt>
<pdfrwt beam="2">  1       21 0.19978324E-01 0.20009234E+03</pdfrwt>
<totfact> 0.10407669E+04</totfact>
</mgrwt>
</event>
<event>
 4    1  0.4349106E+000  0.1810534E+03  0.7546771E-02  0.1166787E+00
         21   -1    0    0  501  502  0.00000000000E+00  0.00000000000E+00  0.84403352805E+02  0.84403352805E+02  0.00000000000E+00 0.  1.
         21   -1    0    0  502  503 -0.00000000000E+00 -0.00000000000E+00 -0.41000828810E+03  0.41000828810E+03  0.00000000000E+00 0.  1.
          6    1    1    2  501    0  0.53020356012E+02  0.63397822947E+01 -0.10602186572E+03  0.20981178947E+03  0.17300000000E+03 0. -1.
         -6    1    1    2    0  503 -0.53020356012E+02 -0.63397822947E+01 -0.21958306958E+03  0.28459985144E+03  0.17300000000E+03 0. -1.
<mgrwt>
<rscale>  2 0.18105345E+03</rscale>
<asrwt>0</asrwt>
<pdfrwt beam="1">  1       21 0.12985131E-01 0.18105345E+03</pdfrwt>
<pdfrwt beam="2">  1       21 0.63078198E-01 0.18105345E+03</pdfrwt>
<totfact> 0.11898512E+05</totfact>
</mgrwt>
</event>
<event>
 4    1  0.4349106E+000  0.1873546E+03  0.7546771E-02  0.1160869E+00
         21   -1    0    0  503  502  0.00000000000E+00  0.00000000000E+00  0.17570347857E+03  0.17570347857E+03  0.00000000000E+00 0.  1.
         21   -1    0    0  501  503 -0.00000000000E+00 -0.00000000000E+00 -0.20005573360E+03  0.20005573360E+03  0.00000000000E+00 0. -1.
          6    1    1    2  501    0  0.70991778987E+02  0.11528997675E+02 -0.51801717387E+01  0.18742621122E+03  0.17300000000E+03 0. -1.
         -6    1    1    2    0  502 -0.70991778987E+02 -0.11528997675E+02 -0.19172083288E+02  0.18833300096E+03  0.17300000000E+03 0. -1.
<mgrwt>
<rscale>  2 0.18735461E+03</rscale>
<asrwt>0</asrwt>
<pdfrwt beam="1">  1       21 0.27031304E-01 0.18735461E+03</pdfrwt>
<pdfrwt beam="2">  1       21 0.30777805E-01 0.18735461E+03</pdfrwt>
<totfact> 0.13242338E+05</totfact>
</mgrwt>
</event>
<event>
 4    1  0.4349106E+000  0.1923079E+03  0.7546771E-02  0.1156396E+00
         21   -1    0    0  503  502  0.00000000000E+00  0.00000000000E+00  0.46859447245E+03  0.46859447245E+03  0.00000000000E+00 0. -1.
         21   -1    0    0  501  503 -0.00000000000E+00 -0.00000000000E+00 -0.80629888195E+02  0.80629888195E+02  0.00000000000E+00 0. -1.
          6    1    1    2  501    0 -0.54804410165E+02  0.63638094775E+02  0.15401323876E+03  0.24637858712E+03  0.17300000000E+03 0. -1.
         -6    1    1    2    0  502  0.54804410165E+02 -0.63638094775E+02  0.23395134549E+03  0.30284577352E+03  0.17300000000E+03 0. -1.
<mgrwt>
<rscale>  2 0.19230791E+03</rscale>
<asrwt>0</asrwt>
<pdfrwt beam="1">  1       21 0.72091456E-01 0.19230791E+03</pdfrwt>
<pdfrwt beam="2">  1       21 0.12404598E-01 0.19230791E+03</pdfrwt>
<totfact> 0.96024143E+04</totfact>
</mgrwt>
</event>
<event>
 4    1  0.4349106E+000  0.1766463E+03  0.7546771E-02  0.1171089E+00
         21   -1    0    0  503  502  0.00000000000E+00  0.00000000000E+00  0.14695565623E+03  0.14695565623E+03  0.00000000000E+00 0. -1.
         21   -1    0    0  501  503 -0.00000000000E+00 -0.00000000000E+00 -0.22934309719E+03  0.22934309719E+03  0.00000000000E+00 0. -1.
          6    1    1    2  501    0 -0.10896086579E+02 -0.34003024084E+02 -0.92430170274E+02  0.19936716562E+03  0.17300000000E+03 0. -1.
         -6    1    1    2    0  502  0.10896086579E+02  0.34003024084E+02  0.10042729314E+02  0.17693158780E+03  0.17300000000E+03 0. -1.
<mgrwt>
<rscale>  2 0.17664634E+03</rscale>
<asrwt>0</asrwt>
<pdfrwt beam="1">  1       21 0.22608563E-01 0.17664634E+03</pdfrwt>
<pdfrwt beam="2">  1       21 0.35283553E-01 0.17664634E+03</pdfrwt>
<totfact> 0.14273693E+05</totfact>
</mgrwt>
</event>
<event>
 4    1  0.4349106E+000  0.3108254E+03  0.7546771E-02  0.1079951E+00
         21   -1    0    0  501  502  0.00000000000E+00  0.00000000000E+00  0.26402850940E+03  0.26402850940E+03  0.00000000000E+00 0.  1.
         21   -1    0    0  502  503 -0.00000000000E+00 -0.00000000000E+00 -0.37207612402E+03  0.37207612402E+03  0.00000000000E+00 0.  1.
          6    1    1    2  501    0  0.15668313708E+03 -0.20526527102E+03 -0.94945466879E+02  0.32500319785E+03  0.17300000000E+03 0.  1.
         -6    1    1    2    0  503 -0.15668313708E+03  0.20526527102E+03 -0.13102147748E+02  0.31110143557E+03  0.17300000000E+03 0.  1.
<mgrwt>
<rscale>  2 0.31082541E+03</rscale>
<asrwt>0</asrwt>
<pdfrwt beam="1">  1       21 0.40619771E-01 0.31082541E+03</pdfrwt>
<pdfrwt beam="2">  1       21 0.57242480E-01 0.31082541E+03</pdfrwt>
<totfact> 0.15760376E+04</totfact>
</mgrwt>
</event>
<event>
 4    1  0.4349106E+000  0.2198543E+03  0.7546771E-02  0.1133992E+00
         21   -1    0    0  503  502  0.00000000000E+00  0.00000000000E+00  0.51429355949E+03  0.51429355949E+03  0.00000000000E+00 0.  1.
         21   -1    0    0  501  503 -0.00000000000E+00 -0.00000000000E+00 -0.11513448813E+03  0.11513448813E+03  0.00000000000E+00 0.  1.
          6    1    1    2  501    0 -0.78762039252E+02 -0.11046919884E+03  0.64694783280E+02  0.22917529907E+03  0.17300000000E+03 0.  1.
         -6    1    1    2    0  502  0.78762039252E+02  0.11046919884E+03  0.33446428808E+03  0.40025274855E+03  0.17300000000E+03 0.  1.
<mgrwt>
<rscale>  2 0.21985428E+03</rscale>
<asrwt>0</asrwt>
<pdfrwt beam="1">  1       21 0.79122085E-01 0.21985428E+03</pdfrwt>
<pdfrwt beam="2">  1       21 0.17712998E-01 0.21985428E+03</pdfrwt>
<totfact> 0.40219812E+04</totfact>
</mgrwt>
</event>
<event>
 4    1  0.4349106E+000  0.2114977E+03  0.7546771E-02  0.1140385E+00
         21   -1    0    0  503  502  0.00000000000E+00  0.00000000000E+00  0.19133005431E+03  0.19133005431E+03  0.00000000000E+00 0.  1.
         21   -1    0    0  501  503 -0.00000000000E+00 -0.00000000000E+00 -0.32933422750E+03  0.32933422750E+03  0.00000000000E+00 0.  1.
          6    1    1    2  501    0  0.25165746473E+02 -0.11903348440E+03  0.71217547195E+02  0.22316635999E+03  0.17300000000E+03 0. -1.
         -6    1    1    2    0  502 -0.25165746473E+02  0.11903348440E+03 -0.20922172038E+03  0.29749792182E+03  0.17300000000E+03 0. -1.
<mgrwt>
<rscale>  2 0.21149772E+03</rscale>
<asrwt>0</asrwt>
<pdfrwt beam="1">  1       21 0.29435393E-01 0.21149772E+03</pdfrwt>
<pdfrwt beam="2">  1       21 0.50666804E-01 0.21149772E+03</pdfrwt>
<totfact> 0.40595487E+04</totfact>
</mgrwt>
</event>
<event>
 4    1  0.4349106E+000  0.1816338E+03  0.7546771E-02  0.1166231E+00
         21   -1    0    0  501  502  0.00000000000E+00  0.00000000000E+00  0.56239700103E+03  0.56239700103E+03  0.00000000000E+00 0.  1.
         21   -1    0    0  502  503 -0.00000000000E+00 -0.00000000000E+00 -0.61917749080E+02  0.61917749080E+02  0.00000000000E+00 0.  1.
          6    1    1    2  501    0  0.54783398325E+02 -0.77867885290E+01  0.32182893515E+03  0.36954663888E+03  0.17300000000E+03 0. -1.
         -6    1    1    2    0  503 -0.54783398325E+02  0.77867885290E+01  0.17865031680E+03  0.25476811123E+03  0.17300000000E+03 0. -1.
<mgrwt>
<rscale>  2 0.18163385E+03</rscale>
<asrwt>0</asrwt>
<pdfrwt beam="1">  1       21 0.86522612E-01 0.18163385E+03</pdfrwt>
<pdfrwt beam="2">  1       21 0.95258079E-02 0.18163385E+03</pdfrwt>
<totfact> 0.10215147E+05</totfact>
</mgrwt>
</event>
<event>
 4    1  0.4349106E+000  0.1792212E+03  0.7546771E-02  0.1168559E+00
         21   -1    0    0  503  502  0.00000000000E+00  0.00000000000E+00  0.48843777856E+03  0.48843777856E+03  0.00000000000E+00 0.  1.
         21   -1    0    0  501  503 -0.00000000000E+00 -0.00000000000E+00 -0.11752524837E+03  0.11752524837E+03  0.00000000000E+00 0.  1.
          6    1    1    2  501    0  0.15719683458E+02 -0.44092413565E+02 -0.15621802299E+02  0.17990077846E+03  0.17300000000E+03 0.  1.
         -6    1    1    2    0  502 -0.15719683458E+02  0.44092413565E+02  0.38653433248E+03  0.42606224847E+03  0.17300000000E+03 0.  1.
<mgrwt>
<rscale>  2 0.17922123E+03</rscale>
<asrwt>0</asrwt>
<pdfrwt beam="1">  1       21 0.75144272E-01 0.17922123E+03</pdfrwt>
<pdfrwt beam="2">  1       21 0.18080808E-01 0.17922123E+03</pdfrwt>
<totfact> 0.44376032E+04</totfact>
</mgrwt>
</event>
<event>
 4    1  0.4349106E+000  0.2108850E+03  0.7546771E-02  0.1140867E+00
         21   -1    0    0  503  502  0.00000000000E+00  0.00000000000E+00  0.53838605757E+03  0.53838605757E+03  0.00000000000E+00 0. -1.
         21   -1    0    0  501  503 -0.00000000000E+00 -0.00000000000E+00 -0.11517430228E+03  0.11517430228E+03  0.00000000000E+00 0. -1.
          6    1    1    2  501    0 -0.12025160293E+03 -0.91115070316E+01  0.37828418648E+02  0.21425092024E+03  0.17300000000E+03 0. -1.
         -6    1    1    2    0  502  0.12025160293E+03  0.91115070316E+01  0.38538333664E+03  0.43930943961E+03  0.17300000000E+03 0. -1.
<mgrwt>
<rscale>  2 0.21088496E+03</rscale>
<asrwt>0</asrwt>
<pdfrwt beam="1">  1       21 0.82828623E-01 0.21088496E+03</pdfrwt>
<pdfrwt beam="2">  1       21 0.17719124E-01 0.21088496E+03</pdfrwt>
<totfact> 0.36385357E+04</totfact>
</mgrwt>
</event>
<event>
 4    1  0.4349106E+000  0.2685611E+03  0.7546771E-02  0.1102106E+00
         21   -1    0    0  503  502  0.00000000000E+00  0.00000000000E+00  0.29885976118E+03  0.29885976118E+03  0.00000000000E+00 0. -1.
         21   -1    0    0  501  503 -0.00000000000E+00 -0.00000000000E+00 -0.39387100532E+03  0.39387100532E+03  0.00000000000E+00 0.  1.
          6    1    1    2  501    0 -0.19344425537E+03 -0.69104108308E+02 -0.26305407544E+03  0.37592885540E+03  0.17300000000E+03 0.  1.
         -6    1    1    2    0  502  0.19344425537E+03  0.69104108308E+02  0.16804283130E+03  0.31680191109E+03  0.17300000000E+03 0. -1.
<mgrwt>
<rscale>  2 0.26856109E+03</rscale>
<asrwt>0</asrwt>
<pdfrwt beam="1">  1       21 0.45978425E-01 0.26856109E+03</pdfrwt>
<pdfrwt beam="2">  1       21 0.60595539E-01 0.26856109E+03</pdfrwt>
<totfact> 0.10998148E+04</totfact>
</mgrwt>
</event>
<event>
 4    1  0.4349106E+000  0.3433178E+03  0.7546771E-02  0.1065392E+00
         21   -1    0    0  501  502  0.00000000000E+00  0.00000000000E+00  0.67594759987E+02  0.67594759987E+02  0.00000000000E+00 0.  1.
         21   -1    0    0  502  503 -0.00000000000E+00 -0.00000000000E+00 -0.17850439472E+04  0.17850439472E+04  0.00000000000E+00 0. -1.
          6    1    1    2  501    0  0.28351803632E+03  0.86922975977E+02 -0.71780246461E+03  0.79568050050E+03  0.17300000000E+03 0.  1.
         -6    1    1    2    0  503 -0.28351803632E+03 -0.86922975977E+02 -0.99964672257E+03  0.10569582067E+04  0.17300000000E+03 0.  1.
<mgrwt>
<rscale>  2 0.34331775E+03</rscale>
<asrwt>0</asrwt>
<pdfrwt beam="1">  1       21 0.10399192E-01 0.34331775E+03</pdfrwt>
<pdfrwt beam="2">  1       21 0.27462218E+00 0.34331775E+03</pdfrwt>
<totfact> 0.31862073E+03</totfact>
</mgrwt>
</event>
<event>
 4    1  0.4349106E+000  0.1826091E+03  0.7546771E-02  0.1165302E+00
         21   -1    0    0  503  502  0.00000000000E+00  0.00000000000E+00  0.41077131688E+03  0.41077131688E+03  0.00000000000E+00 0.  1.
         21   -1    0    0  501  503 -0.00000000000E+00 -0.00000000000E+00 -0.22198602774E+03  0.22198602774E+03  0.00000000000E+00 0.  1.
          6    1    1    2  501    0  0.56831792321E+02 -0.13682768715E+02 -0.15758168414E+03  0.24120128100E+03  0.17300000000E+03 0.  1.
         -6    1    1    2    0  502 -0.56831792321E+02  0.13682768715E+02  0.34636697328E+03  0.39155606362E+03  0.17300000000E+03 0.  1.
<mgrwt>
<rscale>  2 0.18260907E+03</rscale>
<asrwt>0</asrwt>
<pdfrwt beam="1">  1       21 0.63195587E-01 0.18260907E+03</pdfrwt>
<pdfrwt beam="2">  1       21 0.34151697E-01 0.18260907E+03</pdfrwt>
<totfact> 0.19256748E+04</totfact>
</mgrwt>
</event>
<event>
 4    1  0.4349106E+000  0.1869014E+03  0.7546771E-02  0.1161286E+00
         21   -1    0    0  503  502  0.00000000000E+00  0.00000000000E+00  0.10703455139E+04  0.10703455139E+04  0.00000000000E+00 0.  1.
         21   -1    0    0  501  503 -0.00000000000E+00 -0.00000000000E+00 -0.65857698810E+02  0.65857698810E+02  0.00000000000E+00 0. -1.
          6    1    1    2  501    0 -0.36057667315E+02  0.60851980393E+02  0.90573289803E+03  0.92481576623E+03  0.17300000000E+03 0.  1.
         -6    1    1    2    0  502  0.36057667315E+02 -0.60851980393E+02  0.98754917077E+02  0.21138744650E+03  0.17300000000E+03 0. -1.
<mgrwt>
<rscale>  2 0.18690136E+03</rscale>
<asrwt>0</asrwt>
<pdfrwt beam="1">  1       21 0.16466853E+00 0.18690136E+03</pdfrwt>
<pdfrwt beam="2">  1       21 0.10131954E-01 0.18690136E+03</pdfrwt>
<totfact> 0.18534759E+04</totfact>
</mgrwt>
</event>
<event>
 4    1  0.4349106E+000  0.1735894E+03  0.7546771E-02  0.1174156E+00
         21   -1    0    0  503  502  0.00000000000E+00  0.00000000000E+00  0.20709057764E+02  0.20709057764E+02  0.00000000000E+00 0. -1.
         21   -1    0    0  501  503 -0.00000000000E+00 -0.00000000000E+00 -0.15934885230E+04  0.15934885230E+04  0.00000000000E+00 0. -1.
          6    1    1    2  501    0  0.11361852465E+02  0.86701280694E+01 -0.10242594577E+04  0.10388651017E+04  0.17300000000E+03 0. -1.
         -6    1    1    2    0  502 -0.11361852465E+02 -0.86701280694E+01 -0.54852000747E+03  0.57533247902E+03  0.17300000000E+03 0. -1.
<mgrwt>
<rscale>  2 0.17358935E+03</rscale>
<asrwt>0</asrwt>
<pdfrwt beam="1">  1       21 0.31860094E-02 0.17358935E+03</pdfrwt>
<pdfrwt beam="2">  1       21 0.24515204E+00 0.17358935E+03</pdfrwt>
<totfact> 0.41300473E+04</totfact>
</mgrwt>
</event>
<event>
 4    1  0.4349106E+000  0.2186006E+03  0.7546771E-02  0.1134931E+00
         21   -1    0    0  501  502  0.00000000000E+00  0.00000000000E+00  0.28715589014E+02  0.28715589014E+02  0.00000000000E+00 0.  1.
         21   -1    0    0  502  503 -0.00000000000E+00 -0.00000000000E+00 -0.19429048241E+04  0.19429048241E+04  0.00000000000E+00 0. -1.
          6    1    1    2  501    0 -0.10172858175E+03  0.86651695963E+02 -0.58367152749E+03  0.62326452872E+03  0.17300000000E+03 0.  1.
         -6    1    1    2    0  503  0.10172858175E+03 -0.86651695963E+02 -0.13305177076E+04  0.13483558844E+04  0.17300000000E+03 0. -1.
<mgrwt>
<rscale>  2 0.21860060E+03</rscale>
<asrwt>0</asrwt>
<pdfrwt beam="1">  1       21 0.44177826E-02 0.21860060E+03</pdfrwt>
<pdfrwt beam="2">  1       21 0.29890846E+00 0.21860060E+03</pdfrwt>
<totfact> 0.11187341E+04</totfact>
</mgrwt>
</event>
<event>
 4    1  0.4349106E+000  0.2043516E+03  0.7546771E-02  0.1146119E+00
         21   -1    0    0  503  502  0.00000000000E+00  0.00000000000E+00  0.11462101858E+03  0.11462101858E+03  0.00000000000E+00 0. -1.
         21   -1    0    0  501  503 -0.00000000000E+00 -0.00000000000E+00 -0.48569869391E+03  0.48569869391E+03  0.00000000000E+00 0. -1.
          6    1    1    2  501    0 -0.34637592665E+02  0.10310588223E+03 -0.33558573017E+03  0.39290885466E+03  0.17300000000E+03 0. -1.
         -6    1    1    2    0  502  0.34637592665E+02 -0.10310588223E+03 -0.35491945170E+02  0.20741085783E+03  0.17300000000E+03 0. -1.
<mgrwt>
<rscale>  2 0.20435162E+03</rscale>
<asrwt>0</asrwt>
<pdfrwt beam="1">  1       21 0.17634003E-01 0.20435162E+03</pdfrwt>
<pdfrwt beam="2">  1       21 0.74722876E-01 0.20435162E+03</pdfrwt>
<totfact> 0.46473836E+04</totfact>
</mgrwt>
</event>
<event>
 4    1  0.4349106E+000  0.2148512E+03  0.7546771E-02  0.1137781E+00
         21   -1    0    0  503  502  0.00000000000E+00  0.00000000000E+00  0.25598167688E+03  0.25598167688E+03  0.00000000000E+00 0.  1.
         21   -1    0    0  501  503 -0.00000000000E+00 -0.00000000000E+00 -0.20389871932E+03  0.20389871932E+03  0.00000000000E+00 0. -1.
          6    1    1    2  501    0  0.68102524630E+02 -0.10767585447E+03 -0.52135774203E+02  0.22108636875E+03  0.17300000000E+03 0. -1.
         -6    1    1    2    0  502 -0.68102524630E+02  0.10767585447E+03  0.10421873176E+03  0.23879402745E+03  0.17300000000E+03 0.  1.
<mgrwt>
<rscale>  2 0.21485121E+03</rscale>
<asrwt>0</asrwt>
<pdfrwt beam="1">  1       21 0.39381796E-01 0.21485121E+03</pdfrwt>
<pdfrwt beam="2">  1       21 0.31369034E-01 0.21485121E+03</pdfrwt>
<totfact> 0.60095333E+04</totfact>
</mgrwt>
</event>
<event>
 4    1  0.4349106E+000  0.1818667E+03  0.7546771E-02  0.1166009E+00
         21   -1    0    0  503  502  0.00000000000E+00  0.00000000000E+00  0.22178443070E+03  0.22178443070E+03  0.00000000000E+00 0.  1.
         21   -1    0    0  501  503 -0.00000000000E+00 -0.00000000000E+00 -0.27362685342E+03  0.27362685342E+03  0.00000000000E+00 0. -1.
          6    1    1    2  501    0  0.53124847788E+02 -0.18006437389E+02 -0.19300321690E+03  0.26518997525E+03  0.17300000000E+03 0. -1.
         -6    1    1    2    0  502 -0.53124847788E+02  0.18006437389E+02  0.14116079418E+03  0.23022130886E+03  0.17300000000E+03 0.  1.
<mgrwt>
<rscale>  2 0.18186666E+03</rscale>
<asrwt>0</asrwt>
<pdfrwt beam="1">  1       21 0.34120682E-01 0.18186666E+03</pdfrwt>
<pdfrwt beam="2">  1       21 0.42096439E-01 0.18186666E+03</pdfrwt>
<totfact> 0.45181994E+04</totfact>
</mgrwt>
</event>
<event>
 4    1  0.4349106E+000  0.2358414E+03  0.7546771E-02  0.1122595E+00
         21   -1    0    0  501  502  0.00000000000E+00  0.00000000000E+00  0.63126792461E+03  0.63126792461E+03  0.00000000000E+00 0.  1.
         21   -1    0    0  502  503 -0.00000000000E+00 -0.00000000000E+00 -0.94505472573E+02  0.94505472573E+02  0.00000000000E+00 0.  1.
          6    1    1    2  501    0  0.83646077148E+02 -0.13673145177E+03  0.17398135539E+03  0.29307109743E+03  0.17300000000E+03 0.  1.
         -6    1    1    2    0  503 -0.83646077148E+02  0.13673145177E+03  0.36278109664E+03  0.43270229975E+03  0.17300000000E+03 0.  1.
<mgrwt>
<rscale>  2 0.23584138E+03</rscale>
<asrwt>0</asrwt>
<pdfrwt beam="1">  1       21 0.97118140E-01 0.23584138E+03</pdfrwt>
<pdfrwt beam="2">  1       21 0.14539304E-01 0.23584138E+03</pdfrwt>
<totfact> 0.35714326E+04</totfact>
</mgrwt>
</event>
<event>
 4    1  0.4349106E+000  0.1966146E+03  0.7546771E-02  0.1152627E+00
         21   -1    0    0  503  502  0.00000000000E+00  0.00000000000E+00  0.22172567273E+03  0.22172567273E+03  0.00000000000E+00 0.  1.
         21   -1    0    0  501  503 -0.00000000000E+00 -0.00000000000E+00 -0.19305466445E+03  0.19305466445E+03  0.00000000000E+00 0.  1.
          6    1    1    2  501    0 -0.50948688466E+02 -0.78310420963E+02 -0.50222983764E+02  0.20292766935E+03  0.17300000000E+03 0.  1.
         -6    1    1    2    0  502  0.50948688466E+02  0.78310420963E+02  0.78893992041E+02  0.21185266783E+03  0.17300000000E+03 0.  1.
<mgrwt>
<rscale>  2 0.19661457E+03</rscale>
<asrwt>0</asrwt>
<pdfrwt beam="1">  1       21 0.34111642E-01 0.19661457E+03</pdfrwt>
<pdfrwt beam="2">  1       21 0.29700718E-01 0.19661457E+03</pdfrwt>
<totfact> 0.89835855E+04</totfact>
</mgrwt>
</event>
<event>
 4    1  0.4349106E+000  0.2154090E+03  0.7546771E-02  0.1137353E+00
         21   -1    0    0  503  502  0.00000000000E+00  0.00000000000E+00  0.10772299000E+04  0.10772299000E+04  0.00000000000E+00 0.  1.
         21   -1    0    0  501  503 -0.00000000000E+00 -0.00000000000E+00 -0.43074587093E+02  0.43074587093E+02  0.00000000000E+00 0.  1.
          6    1    1    2  501    0  0.18308045689E+02  0.12703092915E+03  0.51821605777E+03  0.56120310408E+03  0.17300000000E+03 0.  1.
         -6    1    1    2    0  502 -0.18308045689E+02 -0.12703092915E+03  0.51593925514E+03  0.55910138302E+03  0.17300000000E+03 0.  1.
<mgrwt>
<rscale>  2 0.21540901E+03</rscale>
<asrwt>0</asrwt>
<pdfrwt beam="1">  1       21 0.16572766E+00 0.21540901E+03</pdfrwt>
<pdfrwt beam="2">  1       21 0.66268604E-02 0.21540901E+03</pdfrwt>
<totfact> 0.37511093E+04</totfact>
</mgrwt>
</event>
<event>
 4    1  0.4349106E+000  0.4602547E+03  0.7546771E-02  0.1024707E+00
         21   -1    0    0  501  502  0.00000000000E+00  0.00000000000E+00  0.12751197333E+03  0.12751197333E+03  0.00000000000E+00 0.  1.
         21   -1    0    0  502  503 -0.00000000000E+00 -0.00000000000E+00 -0.17042209442E+04  0.17042209442E+04  0.00000000000E+00 0. -1.
          6    1    1    2  501    0 -0.31996231556E+03  0.28200974449E+03 -0.93371749370E+03  0.10409912283E+04  0.17300000000E+03 0. -1.
         -6    1    1    2    0  503  0.31996231556E+03 -0.28200974449E+03 -0.64299147721E+03  0.79074168926E+03  0.17300000000E+03 0.  1.
<mgrwt>
<rscale>  2 0.46025469E+03</rscale>
<asrwt>0</asrwt>
<pdfrwt beam="1">  1       21 0.19617225E-01 0.46025469E+03</pdfrwt>
<pdfrwt beam="2">  1       21 0.26218786E+00 0.46025469E+03</pdfrwt>
<totfact> 0.11010688E+03</totfact>
</mgrwt>
</event>
<event>
 4    1  0.4349106E+000  0.2067060E+03  0.7546771E-02  0.1144201E+00
         21   -1    0    0  501  502  0.00000000000E+00  0.00000000000E+00  0.24099704251E+03  0.24099704251E+03  0.00000000000E+00 0. -1.
         21   -1    0    0  502  503 -0.00000000000E+00 -0.00000000000E+00 -0.19363849569E+03  0.19363849569E+03  0.00000000000E+00 0. -1.
          6    1    1    2  501    0 -0.71252701012E+02 -0.87871709113E+02  0.86816008203E+02  0.22419724339E+03  0.17300000000E+03 0. -1.
         -6    1    1    2    0  503  0.71252701012E+02  0.87871709113E+02 -0.39457461376E+02  0.21043829481E+03  0.17300000000E+03 0. -1.
<mgrwt>
<rscale>  2 0.20670603E+03</rscale>
<asrwt>0</asrwt>
<pdfrwt beam="1">  1       21 0.37076468E-01 0.20670603E+03</pdfrwt>
<pdfrwt beam="2">  1       21 0.29790538E-01 0.20670603E+03</pdfrwt>
<totfact> 0.75327518E+04</totfact>
</mgrwt>
</event>
<event>
 4    1  0.4349106E+000  0.1788174E+03  0.7546771E-02  0.1168952E+00
         21   -1    0    0  501  502  0.00000000000E+00  0.00000000000E+00  0.39633041772E+03  0.39633041772E+03  0.00000000000E+00 0.  1.
         21   -1    0    0  502  503 -0.00000000000E+00 -0.00000000000E+00 -0.97795563976E+02  0.97795563976E+02  0.00000000000E+00 0.  1.
          6    1    1    2  501    0  0.38224621301E+02  0.24197966241E+02  0.25262743202E+03  0.30950974565E+03  0.17300000000E+03 0.  1.
         -6    1    1    2    0  503 -0.38224621301E+02 -0.24197966241E+02  0.45907421730E+02  0.18461623605E+03  0.17300000000E+03 0.  1.
<mgrwt>
<rscale>  2 0.17881740E+03</rscale>
<asrwt>0</asrwt>
<pdfrwt beam="1">  1       21 0.60973910E-01 0.17881740E+03</pdfrwt>
<pdfrwt beam="2">  1       21 0.15045472E-01 0.17881740E+03</pdfrwt>
<totfact> 0.98173328E+04</totfact>
</mgrwt>
</event>
<event>
 4    1  0.4349106E+000  0.2405455E+03  0.7546771E-02  0.1119430E+00
         21   -1    0    0  503  502  0.00000000000E+00  0.00000000000E+00  0.92925855387E+03  0.92925855387E+03  0.00000000000E+00 0. -1.
         21   -1    0    0  501  503 -0.00000000000E+00 -0.00000000000E+00 -0.64389880202E+02  0.64389880202E+02  0.00000000000E+00 0.  1.
          6    1    1    2  501    0  0.49350276667E+02 -0.15967995057E+03  0.34222378348E+03  0.41830521680E+03  0.17300000000E+03 0.  1.
         -6    1    1    2    0  502 -0.49350276667E+02  0.15967995057E+03  0.52264489019E+03  0.57534321728E+03  0.17300000000E+03 0. -1.
<mgrwt>
<rscale>  2 0.24054550E+03</rscale>
<asrwt>0</asrwt>
<pdfrwt beam="1">  1       21 0.14296285E+00 0.24054550E+03</pdfrwt>
<pdfrwt beam="2">  1       21 0.99061361E-02 0.24054550E+03</pdfrwt>
<totfact> 0.27193522E+04</totfact>
</mgrwt>
</event>
<event>
 4    1  0.4349106E+000  0.3092464E+03  0.7546771E-02  0.1080708E+00
         21   -1    0    0  503  502  0.00000000000E+00  0.00000000000E+00  0.18823728746E+04  0.18823728746E+04  0.00000000000E+00 0.  1.
         21   -1    0    0  501  503 -0.00000000000E+00 -0.00000000000E+00 -0.58940745039E+02  0.58940745039E+02  0.00000000000E+00 0.  1.
          6    1    1    2  501    0 -0.19324418046E+03  0.16840722426E+03  0.55108283616E+03  0.63192214613E+03  0.17300000000E+03 0.  1.
         -6    1    1    2    0  502  0.19324418046E+03 -0.16840722426E+03  0.12723492934E+04  0.13093914735E+04  0.17300000000E+03 0.  1.
<mgrwt>
<rscale>  2 0.30924635E+03</rscale>
<asrwt>0</asrwt>
<pdfrwt beam="1">  1       21 0.28959578E+00 0.30924635E+03</pdfrwt>
<pdfrwt beam="2">  1       21 0.90678084E-02 0.30924635E+03</pdfrwt>
<totfact> 0.33934386E+03</totfact>
</mgrwt>
</event>
<event>
 4    1  0.4349106E+000  0.2062635E+03  0.7546771E-02  0.1144560E+00
         21   -1    0    0  503  502  0.00000000000E+00  0.00000000000E+00  0.18074930518E+03  0.18074930518E+03  0.00000000000E+00 0. -1.
         21   -1    0    0  501  503 -0.00000000000E+00 -0.00000000000E+00 -0.25431646646E+03  0.25431646646E+03  0.00000000000E+00 0.  1.
          6    1    1    2  501    0  0.93007796682E+02 -0.62969697474E+02 -0.96143859608E+02  0.22757037326E+03  0.17300000000E+03 0. -1.
         -6    1    1    2    0  502 -0.93007796682E+02  0.62969697474E+02  0.22576698332E+02  0.20749539839E+03  0.17300000000E+03 0. -1.
<mgrwt>
<rscale>  2 0.20626350E+03</rscale>
<asrwt>0</asrwt>
<pdfrwt beam="1">  1       21 0.27807585E-01 0.20626350E+03</pdfrwt>
<pdfrwt beam="2">  1       21 0.39125610E-01 0.20626350E+03</pdfrwt>
<totfact> 0.77306628E+04</totfact>
</mgrwt>
</event>
<event>
 4    1  0.4349106E+000  0.1818447E+03  0.7546771E-02  0.1166030E+00
         21   -1    0    0  501  502  0.00000000000E+00  0.00000000000E+00  0.36107549329E+02  0.36107549329E+02  0.00000000000E+00 0.  1.
         21   -1    0    0  502  503 -0.00000000000E+00 -0.00000000000E+00 -0.12695111405E+04  0.12695111405E+04  0.00000000000E+00 0. -1.
          6    1    1    2  501    0  0.80210639265E+01 -0.55445119482E+02 -0.27212265207E+03  0.32728922455E+03  0.17300000000E+03 0.  1.
         -6    1    1    2    0  503 -0.80210639265E+01  0.55445119482E+02 -0.96128093910E+03  0.97832946528E+03  0.17300000000E+03 0. -1.
<mgrwt>
<rscale>  2 0.18184471E+03</rscale>
<asrwt>0</asrwt>
<pdfrwt beam="1">  1       21 0.55550081E-02 0.18184471E+03</pdfrwt>
<pdfrwt beam="2">  1       21 0.19530939E+00 0.18184471E+03</pdfrwt>
<totfact> 0.32627489E+04</totfact>
</mgrwt>
</event>
<event>
 4    1  0.4349106E+000  0.3287518E+03  0.7546771E-02  0.1071691E+00
         21   -1    0    0  503  502  0.00000000000E+00  0.00000000000E+00  0.85921209260E+03  0.85921209260E+03  0.00000000000E+00 0. -1.
         21   -1    0    0  501  503 -0.00000000000E+00 -0.00000000000E+00 -0.15615793420E+03  0.15615793420E+03  0.00000000000E+00 0.  1.
          6    1    1    2  501    0 -0.27745494208E+03 -0.34168515259E+02  0.12763371709E+03  0.35265861404E+03  0.17300000000E+03 0.  1.
         -6    1    1    2    0  502  0.27745494208E+03  0.34168515259E+02  0.57542044131E+03  0.66271141276E+03  0.17300000000E+03 0. -1.
<mgrwt>
<rscale>  2 0.32875178E+03</rscale>
<asrwt>0</asrwt>
<pdfrwt beam="1">  1       21 0.13218647E+00 0.32875178E+03</pdfrwt>
<pdfrwt beam="2">  1       21 0.24024298E-01 0.32875178E+03</pdfrwt>
<totfact> 0.62309909E+03</totfact>
</mgrwt>
</event>
<event>
 4    1  0.4349106E+000  0.2884644E+03  0.7546771E-02  0.1091154E+00
         21   -1    0    0  501  502  0.00000000000E+00  0.00000000000E+00  0.13966018733E+03  0.13966018733E+03  0.00000000000E+00 0.  1.
         21   -1    0    0  502  503 -0.00000000000E+00 -0.00000000000E+00 -0.11110846376E+04  0.11110846376E+04  0.00000000000E+00 0.  1.
          6    1    1    2  501    0 -0.22570973144E+03 -0.48351187232E+02 -0.59837206864E+02  0.29460517901E+03  0.17300000000E+03 0.  1.
         -6    1    1    2    0  503  0.22570973144E+03  0.48351187232E+02 -0.91158724344E+03  0.95613964596E+03  0.17300000000E+03 0.  1.
<mgrwt>
<rscale>  2 0.28846442E+03</rscale>
<asrwt>0</asrwt>
<pdfrwt beam="1">  1       21 0.21486182E-01 0.28846442E+03</pdfrwt>
<pdfrwt beam="2">  1       21 0.17093610E+00 0.28846442E+03</pdfrwt>
<totfact> 0.39487796E+03</totfact>
</mgrwt>
</event>
<event>
 4    1  0.4349106E+000  0.2469308E+03  0.7546771E-02  0.1115260E+00
         21   -1    0    0  503  502  0.00000000000E+00  0.00000000000E+00  0.30718691738E+03  0.30718691738E+03  0.00000000000E+00 0. -1.
         21   -1    0    0  501  503 -0.00000000000E+00 -0.00000000000E+00 -0.32432616868E+03  0.32432616868E+03  0.00000000000E+00 0.  1.
          6    1    1    2  501    0 -0.15751496405E+03 -0.78961165776E+02 -0.20524809172E+03  0.32109439228E+03  0.17300000000E+03 0.  1.
         -6    1    1    2    0  502  0.15751496405E+03  0.78961165776E+02  0.18810884042E+03  0.31041869377E+03  0.17300000000E+03 0. -1.
<mgrwt>
<rscale>  2 0.24693082E+03</rscale>
<asrwt>0</asrwt>
<pdfrwt beam="1">  1       21 0.47259526E-01 0.24693082E+03</pdfrwt>
<pdfrwt beam="2">  1       21 0.49896334E-01 0.24693082E+03</pdfrwt>
<totfact> 0.15889894E+04</totfact>
</mgrwt>
</event>
<event>
 4    1  0.4349106E+000  0.2291638E+03  0.7546771E-02  0.1127230E+00
         21   -1    0    0  501  502  0.00000000000E+00  0.00000000000E+00  0.18444401017E+03  0.18444401017E+03  0.00000000000E+00 0.  1.
         21   -1    0    0  502  503 -0.00000000000E+00 -0.00000000000E+00 -0.30196815953E+03  0.30196815953E+03  0.00000000000E+00 0.  1.
          6    1    1    2  501    0 -0.14014215728E+03  0.54288529366E+02 -0.64746047309E+00  0.22916476141E+03  0.17300000000E+03 0.  1.
         -6    1    1    2    0  503  0.14014215728E+03 -0.54288529366E+02 -0.11687668888E+03  0.25724740829E+03  0.17300000000E+03 0.  1.
<mgrwt>
<rscale>  2 0.22916385E+03</rscale>
<asrwt>0</asrwt>
<pdfrwt beam="1">  1       21 0.28376002E-01 0.22916385E+03</pdfrwt>
<pdfrwt beam="2">  1       21 0.46456640E-01 0.22916385E+03</pdfrwt>
<totfact> 0.51812388E+04</totfact>
</mgrwt>
</event>
<event>
 4    1  0.4349106E+000  0.4101204E+03  0.7546771E-02  0.1040331E+00
         21   -1    0    0  501  502  0.00000000000E+00  0.00000000000E+00  0.14896719838E+04  0.14896719838E+04  0.00000000000E+00 0. -1.
         21   -1    0    0  502  503 -0.00000000000E+00 -0.00000000000E+00 -0.18560423008E+03  0.18560423008E+03  0.00000000000E+00 0.  1.
          6    1    1    2  501    0 -0.31148897787E+03 -0.20308712172E+03  0.11762527656E+04  0.12457003375E+04  0.17300000000E+03 0. -1.
         -6    1    1    2    0  503  0.31148897787E+03  0.20308712172E+03  0.12781498811E+03  0.42957587634E+03  0.17300000000E+03 0.  1.
<mgrwt>
<rscale>  2 0.41012042E+03</rscale>
<asrwt>0</asrwt>
<pdfrwt beam="1">  1       21 0.22918030E+00 0.41012042E+03</pdfrwt>
<pdfrwt beam="2">  1       21 0.28554498E-01 0.41012042E+03</pdfrwt>
<totfact> 0.87313515E+02</totfact>
</mgrwt>
</event>
<event>
 4    1  0.4349106E+000  0.1926997E+03  0.7546771E-02  0.1156049E+00
         21   -1    0    0  501  502  0.00000000000E+00  0.00000000000E+00  0.15087443168E+03  0.15087443168E+03  0.00000000000E+00 0. -1.
         21   -1    0    0  502  503 -0.00000000000E+00 -0.00000000000E+00 -0.25709459223E+03  0.25709459223E+03  0.00000000000E+00 0. -1.
          6    1    1    2  501    0  0.14244497508E+02 -0.83673555304E+02 -0.10964610977E+02  0.19301137858E+03  0.17300000000E+03 0. -1.
         -6    1    1    2    0  503 -0.14244497508E+02  0.83673555304E+02 -0.95255549573E+02  0.21495764534E+03  0.17300000000E+03 0. -1.
<mgrwt>
<rscale>  2 0.19269969E+03</rscale>
<asrwt>0</asrwt>
<pdfrwt beam="1">  1       21 0.23211451E-01 0.19269969E+03</pdfrwt>
<pdfrwt beam="2">  1       21 0.39553014E-01 0.19269969E+03</pdfrwt>
<totfact> 0.10748775E+05</totfact>
</mgrwt>
</event>
<event>
 4    1  0.4349106E+000  0.1836091E+03  0.7546771E-02  0.1164355E+00
         21   -1    0    0  503  502  0.00000000000E+00  0.00000000000E+00  0.33683236619E+03  0.33683236619E+03  0.00000000000E+00 0.  1.
         21   -1    0    0  501  503 -0.00000000000E+00 -0.00000000000E+00 -0.11465923940E+03  0.11465923940E+03  0.00000000000E+00 0.  1.
          6    1    1    2  501    0 -0.61349134018E+02 -0.44246535556E+01  0.30606327246E+02  0.18614252892E+03  0.17300000000E+03 0.  1.
         -6    1    1    2    0  502  0.61349134018E+02  0.44246535556E+01  0.19156679955E+03  0.26534907667E+03  0.17300000000E+03 0.  1.
<mgrwt>
<rscale>  2 0.18360908E+03</rscale>
<asrwt>0</asrwt>
<pdfrwt beam="1">  1       21 0.51820363E-01 0.18360908E+03</pdfrwt>
<pdfrwt beam="2">  1       21 0.17639883E-01 0.18360908E+03</pdfrwt>
<totfact> 0.10339848E+05</totfact>
</mgrwt>
</event>
<event>
 4    1  0.4349106E+000  0.1787956E+03  0.7546771E-02  0.1168974E+00
         21   -1    0    0  501  502  0.00000000000E+00  0.00000000000E+00  0.13201023904E+02  0.13201023904E+02  0.00000000000E+00 0.  1.
         21   -1    0    0  502  503 -0.00000000000E+00 -0.00000000000E+00 -0.25338128084E+04  0.25338128084E+04  0.00000000000E+00 0.  1.
          6    1    1    2  501    0 -0.24072564609E+02  0.38201766024E+02 -0.99232946976E+03  0.10083083060E+04  0.17300000000E+03 0.  1.
         -6    1    1    2    0  503  0.24072564609E+02 -0.38201766024E+02 -0.15282823148E+04  0.15387055264E+04  0.17300000000E+03 0.  1.
<mgrwt>
<rscale>  2 0.17879559E+03</rscale>
<asrwt>0</asrwt>
<pdfrwt beam="1">  1       21 0.20309271E-02 0.17879559E+03</pdfrwt>
<pdfrwt beam="2">  1       21 0.38981728E+00 0.17879559E+03</pdfrwt>
<totfact> 0.12311375E+04</totfact>
</mgrwt>
</event>
<event>
 4    1  0.4349106E+000  0.2546349E+03  0.7546771E-02  0.1110410E+00
         21   -1    0    0  501  502  0.00000000000E+00  0.00000000000E+00  0.55187302404E+03  0.55187302404E+03  0.00000000000E+00 0.  1.
         21   -1    0    0  502  503 -0.00000000000E+00 -0.00000000000E+00 -0.11750719048E+03  0.11750719048E+03  0.00000000000E+00 0.  1.
          6    1    1    2  501    0 -0.17309212862E+03 -0.70349502943E+02  0.22136206838E+03  0.33740199003E+03  0.17300000000E+03 0.  1.
         -6    1    1    2    0  503  0.17309212862E+03  0.70349502943E+02  0.21300376518E+03  0.33197822449E+03  0.17300000000E+03 0.  1.
<mgrwt>
<rscale>  2 0.25463491E+03</rscale>
<asrwt>0</asrwt>
<pdfrwt beam="1">  1       21 0.84903540E-01 0.25463491E+03</pdfrwt>
<pdfrwt beam="2">  1       21 0.18078030E-01 0.25463491E+03</pdfrwt>
<totfact> 0.32442676E+04</totfact>
</mgrwt>
</event>
<event>
 4    1  0.4349106E+000  0.1922319E+03  0.7546771E-02  0.1156464E+00
         21   -1    0    0  503  502  0.00000000000E+00  0.00000000000E+00  0.10666304579E+03  0.10666304579E+03  0.00000000000E+00 0. -1.
         21   -1    0    0  501  503 -0.00000000000E+00 -0.00000000000E+00 -0.43439577867E+03  0.43439577867E+03  0.00000000000E+00 0. -1.
          6    1    1    2  501    0 -0.83397346365E+02 -0.83057283350E+01 -0.28559320961E+03  0.34426237651E+03  0.17300000000E+03 0. -1.
         -6    1    1    2    0  502  0.83397346365E+02  0.83057283350E+01 -0.42139523266E+02  0.19679644795E+03  0.17300000000E+03 0. -1.
<mgrwt>
<rscale>  2 0.19223190E+03</rscale>
<asrwt>0</asrwt>
<pdfrwt beam="1">  1       21 0.16409699E-01 0.19223190E+03</pdfrwt>
<pdfrwt beam="2">  1       21 0.66830119E-01 0.19223190E+03</pdfrwt>
<totfact> 0.68305975E+04</totfact>
</mgrwt>
</event>
<event>
 4    1  0.4349106E+000  0.2941454E+03  0.7546771E-02  0.1088204E+00
         21   -1    0    0  503  502  0.00000000000E+00  0.00000000000E+00  0.17540669910E+03  0.17540669910E+03  0.00000000000E+00 0. -1.
         21   -1    0    0  501  503 -0.00000000000E+00 -0.00000000000E+00 -0.93942981937E+03  0.93942981937E+03  0.00000000000E+00 0.  1.
          6    1    1    2  501    0  0.65168494478E+02 -0.22879155803E+03 -0.76615905142E+03  0.82068337486E+03  0.17300000000E+03 0.  1.
         -6    1    1    2    0  502 -0.65168494478E+02  0.22879155803E+03  0.21359311512E+01  0.29415314361E+03  0.17300000000E+03 0. -1.
<mgrwt>
<rscale>  2 0.29414539E+03</rscale>
<asrwt>0</asrwt>
<pdfrwt beam="1">  1       21 0.26985646E-01 0.29414539E+03</pdfrwt>
<pdfrwt beam="2">  1       21 0.14452767E+00 0.29414539E+03</pdfrwt>
<totfact> 0.40120199E+03</totfact>
</mgrwt>
</event>
<event>
 4    1  0.4349106E+000  0.1808671E+03  0.7546771E-02  0.1166966E+00
         21   -1    0    0  503  502  0.00000000000E+00  0.00000000000E+00  0.10619419949E+03  0.10619419949E+03  0.00000000000E+00 0. -1.
         21   -1    0    0  501  503 -0.00000000000E+00 -0.00000000000E+00 -0.79961314903E+03  0.79961314903E+03  0.00000000000E+00 0. -1.
          6    1    1    2  501    0  0.45114628640E+02 -0.27360124773E+02 -0.70181419238E+03  0.72474551863E+03  0.17300000000E+03 0. -1.
         -6    1    1    2    0  502 -0.45114628640E+02  0.27360124773E+02  0.83952428387E+01  0.18106182990E+03  0.17300000000E+03 0. -1.
<mgrwt>
<rscale>  2 0.18086710E+03</rscale>
<asrwt>0</asrwt>
<pdfrwt beam="1">  1       21 0.16337569E-01 0.18086710E+03</pdfrwt>
<pdfrwt beam="2">  1       21 0.12301741E+00 0.18086710E+03</pdfrwt>
<totfact> 0.16791927E+04</totfact>
</mgrwt>
</event>
<event>
 4    1  0.4349106E+000  0.1892628E+03  0.7546771E-02  0.1159128E+00
         21   -1    0    0  501  502  0.00000000000E+00  0.00000000000E+00  0.11836550344E+03  0.11836550344E+03  0.00000000000E+00 0. -1.
         21   -1    0    0  502  503 -0.00000000000E+00 -0.00000000000E+00 -0.31148822941E+03  0.31148822941E+03  0.00000000000E+00 0. -1.
          6    1    1    2  501    0 -0.76413133837E+02  0.72410696973E+01 -0.60307217122E+02  0.19863876900E+03  0.17300000000E+03 0.  1.
         -6    1    1    2    0  503  0.76413133837E+02 -0.72410696973E+01 -0.13281550885E+03  0.23121496384E+03  0.17300000000E+03 0.  1.
<mgrwt>
<rscale>  2 0.18926278E+03</rscale>
<asrwt>0</asrwt>
<pdfrwt beam="1">  1       21 0.18210078E-01 0.18926278E+03</pdfrwt>
<pdfrwt beam="2">  1       21 0.47921265E-01 0.18926278E+03</pdfrwt>
<totfact> 0.11451256E+05</totfact>
</mgrwt>
</event>
<event>
 4    1  0.4349106E+000  0.1870081E+03  0.7546771E-02  0.1161188E+00
         21   -1    0    0  501  502  0.00000000000E+00  0.00000000000E+00  0.10502463659E+03  0.10502463659E+03  0.00000000000E+00 0. -1.
         21   -1    0    0  502  503 -0.00000000000E+00 -0.00000000000E+00 -0.33355073855E+03  0.33355073855E+03  0.00000000000E+00 0.  1.
          6    1    1    2  501    0 -0.62097616071E+02 -0.34451541048E+02 -0.10526193219E+03  0.21459752321E+03  0.17300000000E+03 0. -1.
         -6    1    1    2    0  503  0.62097616071E+02  0.34451541048E+02 -0.12326416977E+03  0.22397785192E+03  0.17300000000E+03 0.  1.
<mgrwt>
<rscale>  2 0.18700808E+03</rscale>
<asrwt>0</asrwt>
<pdfrwt beam="1">  1       21 0.16157636E-01 0.18700808E+03</pdfrwt>
<pdfrwt beam="2">  1       21 0.51315498E-01 0.18700808E+03</pdfrwt>
<totfact> 0.12385189E+05</totfact>
</mgrwt>
</event>
<event>
 4    1  0.4349106E+000  0.2079046E+03  0.7546771E-02  0.1143236E+00
         21   -1    0    0  503  502  0.00000000000E+00  0.00000000000E+00  0.18971282690E+04  0.18971282690E+04  0.00000000000E+00 0.  1.
         21   -1    0    0  501  503 -0.00000000000E+00 -0.00000000000E+00 -0.30328642418E+02  0.30328642418E+02  0.00000000000E+00 0. -1.
          6    1    1    2  501    0 -0.10850104814E+03 -0.39023872853E+02  0.45273209674E+03  0.49818740602E+03  0.17300000000E+03 0.  1.
         -6    1    1    2    0  502  0.10850104814E+03  0.39023872853E+02  0.14140675299E+04  0.14292695054E+04  0.17300000000E+03 0.  1.
<mgrwt>
<rscale>  2 0.20790464E+03</rscale>
<asrwt>0</asrwt>
<pdfrwt beam="1">  1       21 0.29186579E+00 0.20790464E+03</pdfrwt>
<pdfrwt beam="2">  1       21 0.46659465E-02 0.20790464E+03</pdfrwt>
<totfact> 0.11320690E+04</totfact>
</mgrwt>
</event>
<event>
 4    1  0.4349106E+000  0.2181228E+03  0.7546771E-02  0.1135290E+00
         21   -1    0    0  503  502  0.00000000000E+00  0.00000000000E+00  0.30792924941E+02  0.30792924941E+02  0.00000000000E+00 0. -1.
         21   -1    0    0  501  503 -0.00000000000E+00 -0.00000000000E+00 -0.21364896671E+04  0.21364896671E+04  0.00000000000E+00 0. -1.
          6    1    1    2  501    0 -0.13230658890E+03 -0.11980169831E+02 -0.48271159641E+03  0.52970561942E+03  0.17300000000E+03 0. -1.
         -6    1    1    2    0  502  0.13230658890E+03  0.11980169831E+02 -0.16229851458E+04  0.16375769726E+04  0.17300000000E+03 0. -1.
<mgrwt>
<rscale>  2 0.21812280E+03</rscale>
<asrwt>0</asrwt>
<pdfrwt beam="1">  1       21 0.47373723E-02 0.21812280E+03</pdfrwt>
<pdfrwt beam="2">  1       21 0.32869077E+00 0.21812280E+03</pdfrwt>
<totfact> 0.66737515E+03</totfact>
</mgrwt>
</event>
<event>
 4    1  0.4349106E+000  0.1945275E+03  0.7546771E-02  0.1154440E+00
         21   -1    0    0  503  502  0.00000000000E+00  0.00000000000E+00  0.47928318467E+02  0.47928318467E+02  0.00000000000E+00 0. -1.
         21   -1    0    0  501  503 -0.00000000000E+00 -0.00000000000E+00 -0.90828314027E+03  0.90828314027E+03  0.00000000000E+00 0.  1.
          6    1    1    2  501    0  0.69189860387E+02 -0.55898954544E+02 -0.60305259062E+03  0.63365081626E+03  0.17300000000E+03 0.  1.
         -6    1    1    2    0  502 -0.69189860387E+02  0.55898954544E+02 -0.25730223118E+03  0.32256064247E+03  0.17300000000E+03 0. -1.
<mgrwt>
<rscale>  2 0.19452745E+03</rscale>
<asrwt>0</asrwt>
<pdfrwt beam="1">  1       21 0.73735880E-02 0.19452745E+03</pdfrwt>
<pdfrwt beam="2">  1       21 0.13973586E+00 0.19452745E+03</pdfrwt>
<totfact> 0.49663850E+04</totfact>
</mgrwt>
</event>
<event>
 4    1  0.4349106E+000  0.1776757E+03  0.7546771E-02  0.1170072E+00
         21   -1    0    0  503  502  0.00000000000E+00  0.00000000000E+00  0.22143490898E+04  0.22143490898E+04  0.00000000000E+00 0. -1.
         21   -1    0    0  501  503 -0.00000000000E+00 -0.00000000000E+00 -0.60791896262E+02  0.60791896262E+02  0.00000000000E+00 0. -1.
          6    1    1    2  501    0  0.40476640875E+02 -0.11445977146E+01  0.81493270058E+02  0.19547332715E+03  0.17300000000E+03 0. -1.
         -6    1    1    2    0  502 -0.40476640875E+02  0.11445977146E+01  0.20720639235E+04  0.20796676589E+04  0.17300000000E+03 0. -1.
<mgrwt>
<rscale>  2 0.17767574E+03</rscale>
<asrwt>0</asrwt>
<pdfrwt beam="1">  1       21 0.34066903E+00 0.17767574E+03</pdfrwt>
<pdfrwt beam="2">  1       21 0.93526011E-02 0.17767574E+03</pdfrwt>
<totfact> 0.18509495E+03</totfact>
</mgrwt>
</event>
<event>
 4    1  0.4349106E+000  0.1880634E+03  0.7546771E-02  0.1160220E+00
         21   -1    0    0  503  502  0.00000000000E+00  0.00000000000E+00  0.38714006189E+03  0.38714006189E+03  0.00000000000E+00 0. -1.
         21   -1    0    0  501  503 -0.00000000000E+00 -0.00000000000E+00 -0.91402488156E+02  0.91402488156E+02  0.00000000000E+00 0. -1.
          6    1    1    2  501    0 -0.69246061501E+02  0.25373754896E+02  0.15322323709E+03  0.24258030599E+03  0.17300000000E+03 0. -1.
         -6    1    1    2    0  502  0.69246061501E+02 -0.25373754896E+02  0.14251433665E+03  0.23596224406E+03  0.17300000000E+03 0. -1.
<mgrwt>
<rscale>  2 0.18806341E+03</rscale>
<asrwt>0</asrwt>
<pdfrwt beam="1">  1       21 0.59560009E-01 0.18806341E+03</pdfrwt>
<pdfrwt beam="2">  1       21 0.14061921E-01 0.18806341E+03</pdfrwt>
<totfact> 0.11631187E+05</totfact>
</mgrwt>
</event>
<event>
 4    1  0.4349106E+000  0.2145606E+03  0.7546771E-02  0.1138005E+00
         21   -1    0    0  503  502  0.00000000000E+00  0.00000000000E+00  0.78092978039E+03  0.78092978039E+03  0.00000000000E+00 0. -1.
         21   -1    0    0  501  503 -0.00000000000E+00 -0.00000000000E+00 -0.67420043176E+02  0.67420043176E+02  0.00000000000E+00 0.  1.
          6    1    1    2  501    0  0.36693309119E+02  0.12149427568E+03  0.20641346905E+03  0.29772937067E+03  0.17300000000E+03 0.  1.
         -6    1    1    2    0  502 -0.36693309119E+02 -0.12149427568E+03  0.50709626817E+03  0.55062045290E+03  0.17300000000E+03 0. -1.
<mgrwt>
<rscale>  2 0.21456062E+03</rscale>
<asrwt>0</asrwt>
<pdfrwt beam="1">  1       21 0.12014304E+00 0.21456062E+03</pdfrwt>
<pdfrwt beam="2">  1       21 0.10372315E-01 0.21456062E+03</pdfrwt>
<totfact> 0.39573117E+04</totfact>
</mgrwt>
</event>
<event>
 4    1  0.4349106E+000  0.2552429E+03  0.7546771E-02  0.1110036E+00
         21   -1    0    0  503  502  0.00000000000E+00  0.00000000000E+00  0.29025662368E+03  0.29025662368E+03  0.00000000000E+00 0. -1.
         21   -1    0    0  501  503 -0.00000000000E+00 -0.00000000000E+00 -0.35115623535E+03  0.35115623535E+03  0.00000000000E+00 0. -1.
          6    1    1    2  501    0 -0.10538540931E+03 -0.15528631849E+03 -0.22309207760E+03  0.33899705056E+03  0.17300000000E+03 0. -1.
         -6    1    1    2    0  502  0.10538540931E+03  0.15528631849E+03  0.16219246593E+03  0.30241580846E+03  0.17300000000E+03 0. -1.
<mgrwt>
<rscale>  2 0.25524287E+03</rscale>
<asrwt>0</asrwt>
<pdfrwt beam="1">  1       21 0.44654865E-01 0.25524287E+03</pdfrwt>
<pdfrwt beam="2">  1       21 0.54024036E-01 0.25524287E+03</pdfrwt>
<totfact> 0.15048301E+04</totfact>
</mgrwt>
</event>
<event>
 4    1  0.4349106E+000  0.2332466E+03  0.7546771E-02  0.1124375E+00
         21   -1    0    0  501  502  0.00000000000E+00  0.00000000000E+00  0.11231174276E+03  0.11231174276E+03  0.00000000000E+00 0.  1.
         21   -1    0    0  502  503 -0.00000000000E+00 -0.00000000000E+00 -0.51237782529E+03  0.51237782529E+03  0.00000000000E+00 0.  1.
          6    1    1    2  501    0  0.93101832399E+02 -0.12572605007E+03 -0.12704806893E+03  0.26560346888E+03  0.17300000000E+03 0.  1.
         -6    1    1    2    0  503 -0.93101832399E+02  0.12572605007E+03 -0.27301801361E+03  0.35908609917E+03  0.17300000000E+03 0.  1.
<mgrwt>
<rscale>  2 0.23324663E+03</rscale>
<asrwt>0</asrwt>
<pdfrwt beam="1">  1       21 0.17278730E-01 0.23324663E+03</pdfrwt>
<pdfrwt beam="2">  1       21 0.78827358E-01 0.23324663E+03</pdfrwt>
<totfact> 0.42203859E+04</totfact>
</mgrwt>
</event>
<event>
 4    1  0.4349106E+000  0.1956062E+03  0.7546771E-02  0.1153500E+00
         21   -1    0    0  503  502  0.00000000000E+00  0.00000000000E+00  0.20434668120E+03  0.20434668120E+03  0.00000000000E+00 0.  1.
         21   -1    0    0  501  503 -0.00000000000E+00 -0.00000000000E+00 -0.19565917827E+03  0.19565917827E+03  0.00000000000E+00 0.  1.
          6    1    1    2  501    0 -0.52864777517E+02  0.74418325770E+02 -0.37145328492E+02  0.19910185168E+03  0.17300000000E+03 0.  1.
         -6    1    1    2    0  502  0.52864777517E+02 -0.74418325770E+02  0.45832831419E+02  0.20090400780E+03  0.17300000000E+03 0.  1.
<mgrwt>
<rscale>  2 0.19560617E+03</rscale>
<asrwt>0</asrwt>
<pdfrwt beam="1">  1       21 0.31437951E-01 0.19560617E+03</pdfrwt>
<pdfrwt beam="2">  1       21 0.30101412E-01 0.19560617E+03</pdfrwt>
<totfact> 0.10282978E+05</totfact>
</mgrwt>
</event>
<event>
 4    1  0.4349106E+000  0.2372517E+03  0.7546771E-02  0.1121637E+00
         21   -1    0    0  503  502  0.00000000000E+00  0.00000000000E+00  0.19843765509E+03  0.19843765509E+03  0.00000000000E+00 0. -1.
         21   -1    0    0  501  503 -0.00000000000E+00 -0.00000000000E+00 -0.30284110710E+03  0.30284110710E+03  0.00000000000E+00 0.  1.
          6    1    1    2  501    0 -0.16158533779E+03 -0.15797693864E+02 -0.11528346332E+03  0.26377768184E+03  0.17300000000E+03 0.  1.
         -6    1    1    2    0  502  0.16158533779E+03  0.15797693864E+02  0.10880011308E+02  0.23750108035E+03  0.17300000000E+03 0. -1.
<mgrwt>
<rscale>  2 0.23725174E+03</rscale>
<asrwt>0</asrwt>
<pdfrwt beam="1">  1       21 0.30528870E-01 0.23725174E+03</pdfrwt>
<pdfrwt beam="2">  1       21 0.46590939E-01 0.23725174E+03</pdfrwt>
<totfact> 0.44492453E+04</totfact>
</mgrwt>
</event>
<event>
 4    1  0.4349106E+000  0.2158189E+03  0.7546771E-02  0.1137039E+00
         21   -1    0    0  501  502  0.00000000000E+00  0.00000000000E+00  0.14499972789E+04  0.14499972789E+04  0.00000000000E+00 0.  1.
         21   -1    0    0  502  503 -0.00000000000E+00 -0.00000000000E+00 -0.33115637201E+02  0.33115637201E+02  0.00000000000E+00 0.  1.
          6    1    1    2  501    0 -0.86441708767E+01 -0.12874027481E+03  0.83684989802E+03  0.86423117965E+03  0.17300000000E+03 0.  1.
         -6    1    1    2    0  503  0.86441708767E+01  0.12874027481E+03  0.58003174370E+03  0.61888173648E+03  0.17300000000E+03 0.  1.
<mgrwt>
<rscale>  2 0.21581886E+03</rscale>
<asrwt>0</asrwt>
<pdfrwt beam="1">  1       21 0.22307645E+00 0.21581886E+03</pdfrwt>
<pdfrwt beam="2">  1       21 0.50947146E-02 0.21581886E+03</pdfrwt>
<totfact> 0.24660909E+04</totfact>
</mgrwt>
</event>
<event>
 4    1  0.4349106E+000  0.1898790E+03  0.7546771E-02  0.1158571E+00
         21   -1    0    0  501  502  0.00000000000E+00  0.00000000000E+00  0.10800920273E+03  0.10800920273E+03  0.00000000000E+00 0. -1.
         21   -1    0    0  502  503 -0.00000000000E+00 -0.00000000000E+00 -0.51513312095E+03  0.51513312095E+03  0.00000000000E+00 0. -1.
          6    1    1    2  501    0  0.62398629332E+02  0.47238139855E+02 -0.18707518438E+02  0.19079832820E+03  0.17300000000E+03 0. -1.
         -6    1    1    2    0  503 -0.62398629332E+02 -0.47238139855E+02 -0.38841639978E+03  0.43234399547E+03  0.17300000000E+03 0. -1.
<mgrwt>
<rscale>  2 0.18987899E+03</rscale>
<asrwt>0</asrwt>
<pdfrwt beam="1">  1       21 0.16616800E-01 0.18987899E+03</pdfrwt>
<pdfrwt beam="2">  1       21 0.79251251E-01 0.18987899E+03</pdfrwt>
<totfact> 0.45766814E+04</totfact>
</mgrwt>
</event>
<event>
 4    1  0.4349106E+000  0.2148498E+03  0.7546771E-02  0.1137782E+00
         21   -1    0    0  503  502  0.00000000000E+00  0.00000000000E+00  0.37011611073E+02  0.37011611073E+02  0.00000000000E+00 0. -1.
         21   -1    0    0  501  503 -0.00000000000E+00 -0.00000000000E+00 -0.17717325132E+04  0.17717325132E+04  0.00000000000E+00 0. -1.
          6    1    1    2  501    0 -0.10389915298E+03  0.73731881688E+02 -0.13594446025E+04  0.13763175693E+04  0.17300000000E+03 0. -1.
         -6    1    1    2    0  502  0.10389915298E+03 -0.73731881688E+02 -0.37527629968E+03  0.43242655500E+03  0.17300000000E+03 0. -1.
<mgrwt>
<rscale>  2 0.21484977E+03</rscale>
<asrwt>0</asrwt>
<pdfrwt beam="1">  1       21 0.56940940E-02 0.21484977E+03</pdfrwt>
<pdfrwt beam="2">  1       21 0.27257423E+00 0.21484977E+03</pdfrwt>
<totfact> 0.10366818E+04</totfact>
</mgrwt>
</event>
<event>
 4    1  0.4349106E+000  0.2005394E+03  0.7546771E-02  0.1149285E+00
         21   -1    0    0  501  502  0.00000000000E+00  0.00000000000E+00  0.53593371229E+02  0.53593371229E+02  0.00000000000E+00 0. -1.
         21   -1    0    0  502  503 -0.00000000000E+00 -0.00000000000E+00 -0.75039670524E+03  0.75039670524E+03  0.00000000000E+00 0.  1.
          6    1    1    2  501    0 -0.10135856246E+03  0.36731470197E+01 -0.34938165026E+03  0.40284437161E+03  0.17300000000E+03 0.  1.
         -6    1    1    2    0  503  0.10135856246E+03 -0.36731470197E+01 -0.34742168375E+03  0.40114570486E+03  0.17300000000E+03 0.  1.
<mgrwt>
<rscale>  2 0.20053940E+03</rscale>
<asrwt>0</asrwt>
<pdfrwt beam="1">  1       21 0.82451349E-02 0.20053940E+03</pdfrwt>
<pdfrwt beam="2">  1       21 0.11544563E+00 0.20053940E+03</pdfrwt>
<totfact> 0.65863694E+04</totfact>
</mgrwt>
</event>
<event>
 4    1  0.4349106E+000  0.1784648E+03  0.7546771E-02  0.1169297E+00
         21   -1    0    0  501  502  0.00000000000E+00  0.00000000000E+00  0.15083185971E+03  0.15083185971E+03  0.00000000000E+00 0. -1.
         21   -1    0    0  502  503 -0.00000000000E+00 -0.00000000000E+00 -0.61790190692E+03  0.61790190692E+03  0.00000000000E+00 0. -1.
          6    1    1    2  501    0 -0.43607046923E+02  0.43723371537E+01  0.78314816629E+02  0.19489202748E+03  0.17300000000E+03 0. -1.
         -6    1    1    2    0  503  0.43607046923E+02 -0.43723371537E+01 -0.54538486384E+03  0.57384173914E+03  0.17300000000E+03 0. -1.
<mgrwt>
<rscale>  2 0.17846482E+03</rscale>
<asrwt>0</asrwt>
<pdfrwt beam="1">  1       21 0.23204902E-01 0.17846482E+03</pdfrwt>
<pdfrwt beam="2">  1       21 0.95061831E-01 0.17846482E+03</pdfrwt>
<totfact> 0.16291118E+04</totfact>
</mgrwt>
</event>
<event>
 4    1  0.4349106E+000  0.1840660E+03  0.7546771E-02  0.1163925E+00
         21   -1    0    0  501  502  0.00000000000E+00  0.00000000000E+00  0.36449408225E+03  0.36449408225E+03  0.00000000000E+00 0.  1.
         21   -1    0    0  502  503 -0.00000000000E+00 -0.00000000000E+00 -0.15883545668E+03  0.15883545668E+03  0.00000000000E+00 0.  1.
          6    1    1    2  501    0  0.55363317911E+02 -0.29769071446E+02  0.27135307834E+03  0.32789142671E+03  0.17300000000E+03 0.  1.
         -6    1    1    2    0  503 -0.55363317911E+02  0.29769071446E+02 -0.65694452764E+02  0.19543811222E+03  0.17300000000E+03 0.  1.
<mgrwt>
<rscale>  2 0.18406601E+03</rscale>
<asrwt>0</asrwt>
<pdfrwt beam="1">  1       21 0.56076012E-01 0.18406601E+03</pdfrwt>
<pdfrwt beam="2">  1       21 0.24436224E-01 0.18406601E+03</pdfrwt>
<totfact> 0.47555314E+04</totfact>
</mgrwt>
</event>
<event>
 4    1  0.4349106E+000  0.1928182E+03  0.7546771E-02  0.1155944E+00
         21   -1    0    0  501  502  0.00000000000E+00  0.00000000000E+00  0.40112882049E+03  0.40112882049E+03  0.00000000000E+00 0.  1.
         21   -1    0    0  502  503 -0.00000000000E+00 -0.00000000000E+00 -0.12486041600E+03  0.12486041600E+03  0.00000000000E+00 0.  1.
          6    1    1    2  501    0 -0.51727361554E+02 -0.67632410988E+02  0.27163767101E+03  0.33311542634E+03  0.17300000000E+03 0.  1.
         -6    1    1    2    0  503  0.51727361554E+02  0.67632410988E+02  0.46307334708E+01  0.19287381015E+03  0.17300000000E+03 0.  1.
<mgrwt>
<rscale>  2 0.19281821E+03</rscale>
<asrwt>0</asrwt>
<pdfrwt beam="1">  1       21 0.61712126E-01 0.19281821E+03</pdfrwt>
<pdfrwt beam="2">  1       21 0.19209295E-01 0.19281821E+03</pdfrwt>
<totfact> 0.60695133E+04</totfact>
</mgrwt>
</event>
<event>
 4    1  0.4349106E+000  0.6171358E+03  0.7546771E-02  0.9870479E-01
         21   -1    0    0  501  502  0.00000000000E+00  0.00000000000E+00  0.10697985141E+04  0.10697985141E+04  0.00000000000E+00 0. -1.
         21   -1    0    0  502  503 -0.00000000000E+00 -0.00000000000E+00 -0.37161126252E+03  0.37161126252E+03  0.00000000000E+00 0.  1.
          6    1    1    2  501    0 -0.69742805780E+02 -0.58827160990E+03  0.20141269233E+03  0.64917148628E+03  0.17300000000E+03 0.  1.
         -6    1    1    2    0  503  0.69742805780E+02  0.58827160990E+03  0.49677455926E+03  0.79223829035E+03  0.17300000000E+03 0. -1.
<mgrwt>
<rscale>  2 0.61713576E+03</rscale>
<asrwt>0</asrwt>
<pdfrwt beam="1">  1       21 0.16458439E+00 0.61713576E+03</pdfrwt>
<pdfrwt beam="2">  1       21 0.57170964E-01 0.61713576E+03</pdfrwt>
<totfact> 0.52225489E+02</totfact>
</mgrwt>
</event>
<event>
 4    1  0.4349106E+000  0.3258911E+03  0.7546771E-02  0.1072970E+00
         21   -1    0    0  501  502  0.00000000000E+00  0.00000000000E+00  0.49939129227E+03  0.49939129227E+03  0.00000000000E+00 0. -1.
         21   -1    0    0  502  503 -0.00000000000E+00 -0.00000000000E+00 -0.36365699282E+03  0.36365699282E+03  0.00000000000E+00 0.  1.
          6    1    1    2  501    0 -0.26566782440E+03  0.75475833207E+02  0.34592200540E+03  0.47525469818E+03  0.17300000000E+03 0. -1.
         -6    1    1    2    0  503  0.26566782440E+03 -0.75475833207E+02 -0.21018770594E+03  0.38779358691E+03  0.17300000000E+03 0.  1.
<mgrwt>
<rscale>  2 0.32589108E+03</rscale>
<asrwt>0</asrwt>
<pdfrwt beam="1">  1       21 0.76829429E-01 0.32589108E+03</pdfrwt>
<pdfrwt beam="2">  1       21 0.55947230E-01 0.32589108E+03</pdfrwt>
<totfact> 0.41716216E+03</totfact>
</mgrwt>
</event>
<event>
 4    1  0.4349106E+000  0.1937866E+03  0.7546771E-02  0.1155090E+00
         21   -1    0    0  501  502  0.00000000000E+00  0.00000000000E+00  0.55338810957E+02  0.55338810957E+02  0.00000000000E+00 0. -1.
         21   -1    0    0  502  503 -0.00000000000E+00 -0.00000000000E+00 -0.72223499728E+03  0.72223499728E+03  0.00000000000E+00 0.  1.
          6    1    1    2  501    0 -0.86626204793E+02  0.10961161501E+02 -0.23789159528E+03  0.30683164362E+03  0.17300000000E+03 0. -1.
         -6    1    1    2    0  503  0.86626204793E+02 -0.10961161501E+02 -0.42900459104E+03  0.47074216462E+03  0.17300000000E+03 0. -1.
<mgrwt>
<rscale>  2 0.19378660E+03</rscale>
<asrwt>0</asrwt>
<pdfrwt beam="1">  1       21 0.85136641E-02 0.19378660E+03</pdfrwt>
<pdfrwt beam="2">  1       21 0.11111307E+00 0.19378660E+03</pdfrwt>
<totfact> 0.68585030E+04</totfact>
</mgrwt>
</event>
<event>
 4    1  0.4349106E+000  0.2692691E+03  0.7546771E-02  0.1101699E+00
         21   -1    0    0  503  502  0.00000000000E+00  0.00000000000E+00  0.59355984451E+02  0.59355984451E+02  0.00000000000E+00 0. -1.
         21   -1    0    0  501  503 -0.00000000000E+00 -0.00000000000E+00 -0.12561642636E+04  0.12561642636E+04  0.00000000000E+00 0.  1.
          6    1    1    2  501    0  0.19341165211E+02 -0.20543311169E+03 -0.70760356508E+03  0.75710544138E+03  0.17300000000E+03 0. -1.
         -6    1    1    2    0  502 -0.19341165211E+02  0.20543311169E+03 -0.48920471411E+03  0.55841480671E+03  0.17300000000E+03 0.  1.
<mgrwt>
<rscale>  2 0.26926909E+03</rscale>
<asrwt>0</asrwt>
<pdfrwt beam="1">  1       21 0.91316903E-02 0.26926909E+03</pdfrwt>
<pdfrwt beam="2">  1       21 0.19325603E+00 0.26926909E+03</pdfrwt>
<totfact> 0.13414112E+04</totfact>
</mgrwt>
</event>
<event>
 4    1  0.4349106E+000  0.1999081E+03  0.7546771E-02  0.1149817E+00
         21   -1    0    0  503  502  0.00000000000E+00  0.00000000000E+00  0.12554492668E+04  0.12554492668E+04  0.00000000000E+00 0. -1.
         21   -1    0    0  501  503 -0.00000000000E+00 -0.00000000000E+00 -0.17141739900E+03  0.17141739900E+03  0.00000000000E+00 0. -1.
          6    1    1    2  501    0 -0.31347665110E+02 -0.95139748514E+02 -0.10177700096E+03  0.22432522324E+03  0.17300000000E+03 0. -1.
         -6    1    1    2    0  502  0.31347665110E+02  0.95139748514E+02  0.11858088688E+04  0.12025414426E+04  0.17300000000E+03 0. -1.
<mgrwt>
<rscale>  2 0.19990810E+03</rscale>
<asrwt>0</asrwt>
<pdfrwt beam="1">  1       21 0.19314604E+00 0.19990810E+03</pdfrwt>
<pdfrwt beam="2">  1       21 0.26371908E-01 0.19990810E+03</pdfrwt>
<totfact> 0.20187539E+03</totfact>
</mgrwt>
</event>
<event>
 4    1  0.4349106E+000  0.1998008E+03  0.7546771E-02  0.1149907E+00
         21   -1    0    0  501  502  0.00000000000E+00  0.00000000000E+00  0.43033784226E+02  0.43033784226E+02  0.00000000000E+00 0. -1.
         21   -1    0    0  502  503 -0.00000000000E+00 -0.00000000000E+00 -0.13296141164E+04  0.13296141164E+04  0.00000000000E+00 0.  1.
          6    1    1    2  501    0 -0.29134414305E+02 -0.95616665495E+02 -0.26592735485E+03  0.33262248702E+03  0.17300000000E+03 0. -1.
         -6    1    1    2    0  503  0.29134414305E+02  0.95616665495E+02 -0.10206529774E+04  0.10400254137E+04  0.17300000000E+03 0.  1.
<mgrwt>
<rscale>  2 0.19980080E+03</rscale>
<asrwt>0</asrwt>
<pdfrwt beam="1">  1       21 0.66205817E-02 0.19980080E+03</pdfrwt>
<pdfrwt beam="2">  1       21 0.20455603E+00 0.19980080E+03</pdfrwt>
<totfact> 0.20797395E+04</totfact>
</mgrwt>
</event>
<event>
 4    1  0.4349106E+000  0.1825418E+03  0.7546771E-02  0.1165365E+00
         21   -1    0    0  503  502  0.00000000000E+00  0.00000000000E+00  0.62326071011E+03  0.62326071011E+03  0.00000000000E+00 0.  1.
         21   -1    0    0  501  503 -0.00000000000E+00 -0.00000000000E+00 -0.12243255581E+03  0.12243255581E+03  0.00000000000E+00 0.  1.
          6    1    1    2  501    0 -0.57362823917E+02 -0.10100559474E+02 -0.29425952396E+02  0.18489835463E+03  0.17300000000E+03 0.  1.
         -6    1    1    2    0  502  0.57362823917E+02  0.10100559474E+02  0.53025410669E+03  0.56079491129E+03  0.17300000000E+03 0.  1.
<mgrwt>
<rscale>  2 0.18254182E+03</rscale>
<asrwt>0</asrwt>
<pdfrwt beam="1">  1       21 0.95886261E-01 0.18254182E+03</pdfrwt>
<pdfrwt beam="2">  1       21 0.18835778E-01 0.18254182E+03</pdfrwt>
<totfact> 0.23535977E+04</totfact>
</mgrwt>
</event>
<event>
 4    1  0.4349106E+000  0.1965036E+03  0.7546771E-02  0.1152723E+00
         21   -1    0    0  501  502  0.00000000000E+00  0.00000000000E+00  0.16543500584E+03  0.16543500584E+03  0.00000000000E+00 0. -1.
         21   -1    0    0  502  503 -0.00000000000E+00 -0.00000000000E+00 -0.37189639879E+03  0.37189639879E+03  0.00000000000E+00 0.  1.
          6    1    1    2  501    0  0.59467900484E+02  0.71751263796E+02  0.60718628675E+02  0.20567067587E+03  0.17300000000E+03 0. -1.
         -6    1    1    2    0  503 -0.59467900484E+02 -0.71751263796E+02 -0.26718002163E+03  0.33166072876E+03  0.17300000000E+03 0.  1.
<mgrwt>
<rscale>  2 0.19650363E+03</rscale>
<asrwt>0</asrwt>
<pdfrwt beam="1">  1       21 0.25451540E-01 0.19650363E+03</pdfrwt>
<pdfrwt beam="2">  1       21 0.57214830E-01 0.19650363E+03</pdfrwt>
<totfact> 0.41905550E+04</totfact>
</mgrwt>
</event>
<event>
 4    1  0.4349106E+000  0.2375455E+03  0.7546771E-02  0.1121439E+00
         21   -1    0    0  503  502  0.00000000000E+00  0.00000000000E+00  0.77543584578E+02  0.77543584578E+02  0.00000000000E+00 0. -1.
         21   -1    0    0  501  503 -0.00000000000E+00 -0.00000000000E+00 -0.73415841694E+03  0.73415841694E+03  0.00000000000E+00 0.  1.
          6    1    1    2  501    0  0.14678375883E+03  0.70380379657E+02 -0.29021895874E+03  0.37503988282E+03  0.17300000000E+03 0. -1.
         -6    1    1    2    0  502 -0.14678375883E+03 -0.70380379657E+02 -0.36639587362E+03  0.43666211869E+03  0.17300000000E+03 0.  1.
<mgrwt>
<rscale>  2 0.23754551E+03</rscale>
<asrwt>0</asrwt>
<pdfrwt beam="1">  1       21 0.11929782E-01 0.23754551E+03</pdfrwt>
<pdfrwt beam="2">  1       21 0.11294745E+00 0.23754551E+03</pdfrwt>
<totfact> 0.35473124E+04</totfact>
</mgrwt>
</event>
<event>
 4    1  0.4349106E+000  0.2205645E+03  0.7546771E-02  0.1133463E+00
         21   -1    0    0  501  502  0.00000000000E+00  0.00000000000E+00  0.10032629027E+03  0.10032629027E+03  0.00000000000E+00 0.  1.
         21   -1    0    0  502  503 -0.00000000000E+00 -0.00000000000E+00 -0.68281394116E+03  0.68281394116E+03  0.00000000000E+00 0. -1.
          6    1    1    2  501    0  0.17996541621E+01 -0.13680803395E+03 -0.80433671128E+02  0.23477276750E+03  0.17300000000E+03 0.  1.
         -6    1    1    2    0  503 -0.17996541621E+01  0.13680803395E+03 -0.50205397976E+03  0.54836746394E+03  0.17300000000E+03 0. -1.
<mgrwt>
<rscale>  2 0.22056445E+03</rscale>
<asrwt>0</asrwt>
<pdfrwt beam="1">  1       21 0.15434814E-01 0.22056445E+03</pdfrwt>
<pdfrwt beam="2">  1       21 0.10504830E+00 0.22056445E+03</pdfrwt>
<totfact> 0.26745088E+04</totfact>
</mgrwt>
</event>
<event>
 4    1  0.4349106E+000  0.2185689E+03  0.7546771E-02  0.1134954E+00
         21   -1    0    0  503  502  0.00000000000E+00  0.00000000000E+00  0.22575956649E+03  0.22575956649E+03  0.00000000000E+00 0. -1.
         21   -1    0    0  501  503 -0.00000000000E+00 -0.00000000000E+00 -0.37348979443E+03  0.37348979443E+03  0.00000000000E+00 0. -1.
          6    1    1    2  501    0 -0.96457453704E+02  0.92408554609E+02 -0.27112469416E+03  0.34825419039E+03  0.17300000000E+03 0. -1.
         -6    1    1    2    0  502  0.96457453704E+02 -0.92408554609E+02  0.12339446621E+03  0.25099517053E+03  0.17300000000E+03 0. -1.
<mgrwt>
<rscale>  2 0.21856894E+03</rscale>
<asrwt>0</asrwt>
<pdfrwt beam="1">  1       21 0.34732241E-01 0.21856894E+03</pdfrwt>
<pdfrwt beam="2">  1       21 0.57459968E-01 0.21856894E+03</pdfrwt>
<totfact> 0.22377907E+04</totfact>
</mgrwt>
</event>
<event>
 4    1  0.4349106E+000  0.1867759E+03  0.7546771E-02  0.1161402E+00
         21   -1    0    0  501  502  0.00000000000E+00  0.00000000000E+00  0.27694577390E+03  0.27694577390E+03  0.00000000000E+00 0.  1.
         21   -1    0    0  502  503 -0.00000000000E+00 -0.00000000000E+00 -0.13767098132E+03  0.13767098132E+03  0.00000000000E+00 0.  1.
          6    1    1    2  501    0  0.10025869073E+02  0.69683020443E+02  0.13009002211E+03  0.22761514721E+03  0.17300000000E+03 0. -1.
         -6    1    1    2    0  503 -0.10025869073E+02 -0.69683020443E+02  0.91847704650E+01  0.18700160801E+03  0.17300000000E+03 0. -1.
<mgrwt>
<rscale>  2 0.18677591E+03</rscale>
<asrwt>0</asrwt>
<pdfrwt beam="1">  1       21 0.42607042E-01 0.18677591E+03</pdfrwt>
<pdfrwt beam="2">  1       21 0.21180151E-01 0.18677591E+03</pdfrwt>
<totfact> 0.11010078E+05</totfact>
</mgrwt>
</event>
<event>
 4    1  0.4349106E+000  0.2222544E+03  0.7546771E-02  0.1132213E+00
         21   -1    0    0  501  502  0.00000000000E+00  0.00000000000E+00  0.75634806864E+03  0.75634806864E+03  0.00000000000E+00 0. -1.
         21   -1    0    0  502  503 -0.00000000000E+00 -0.00000000000E+00 -0.15472177329E+03  0.15472177329E+03  0.00000000000E+00 0.  1.
          6    1    1    2  501    0  0.11594542642E+03  0.77618683928E+02  0.64710605967E+03  0.68420994912E+03  0.17300000000E+03 0. -1.
         -6    1    1    2    0  503 -0.11594542642E+03 -0.77618683928E+02 -0.45479764319E+02  0.22685989281E+03  0.17300000000E+03 0.  1.
<mgrwt>
<rscale>  2 0.22225436E+03</rscale>
<asrwt>0</asrwt>
<pdfrwt beam="1">  1       21 0.11636124E+00 0.22225436E+03</pdfrwt>
<pdfrwt beam="2">  1       21 0.23803350E-01 0.22225436E+03</pdfrwt>
<totfact> 0.92790229E+03</totfact>
</mgrwt>
</event>
<event>
 4    1  0.4349106E+000  0.1886557E+03  0.7546771E-02  0.1159679E+00
         21   -1    0    0  501  502  0.00000000000E+00  0.00000000000E+00  0.21253142741E+03  0.21253142741E+03  0.00000000000E+00 0.  1.
         21   -1    0    0  502  503 -0.00000000000E+00 -0.00000000000E+00 -0.17802586339E+03  0.17802586339E+03  0.00000000000E+00 0.  1.
          6    1    1    2  501    0  0.71518589768E+02  0.23389522959E+02 -0.30315850632E+02  0.19107597773E+03  0.17300000000E+03 0. -1.
         -6    1    1    2    0  503 -0.71518589768E+02 -0.23389522959E+02  0.64821414648E+02  0.19948131307E+03  0.17300000000E+03 0. -1.
<mgrwt>
<rscale>  2 0.18865571E+03</rscale>
<asrwt>0</asrwt>
<pdfrwt beam="1">  1       21 0.32697143E-01 0.18865571E+03</pdfrwt>
<pdfrwt beam="2">  1       21 0.27388594E-01 0.18865571E+03</pdfrwt>
<totfact> 0.11462665E+05</totfact>
</mgrwt>
</event>
<event>
 4    1  0.4349106E+000  0.2075475E+03  0.7546771E-02  0.1143523E+00
         21   -1    0    0  501  502  0.00000000000E+00  0.00000000000E+00  0.77111085066E+02  0.77111085066E+02  0.00000000000E+00 0.  1.
         21   -1    0    0  502  503 -0.00000000000E+00 -0.00000000000E+00 -0.76298206331E+03  0.76298206331E+03  0.00000000000E+00 0. -1.
          6    1    1    2  501    0 -0.11095992774E+03  0.28893572912E+02 -0.12554609190E+03  0.24256497132E+03  0.17300000000E+03 0.  1.
         -6    1    1    2    0  503  0.11095992774E+03 -0.28893572912E+02 -0.56032488635E+03  0.59752817706E+03  0.17300000000E+03 0. -1.
<mgrwt>
<rscale>  2 0.20754745E+03</rscale>
<asrwt>0</asrwt>
<pdfrwt beam="1">  1       21 0.11863244E-01 0.20754745E+03</pdfrwt>
<pdfrwt beam="2">  1       21 0.11738186E+00 0.20754745E+03</pdfrwt>
<totfact> 0.33116520E+04</totfact>
</mgrwt>
</event>
<event>
 4    1  0.4349106E+000  0.3593553E+03  0.7546771E-02  0.1058839E+00
         21   -1    0    0  501  502  0.00000000000E+00  0.00000000000E+00  0.27149974942E+03  0.27149974942E+03  0.00000000000E+00 0.  1.
         21   -1    0    0  502  503 -0.00000000000E+00 -0.00000000000E+00 -0.53599497367E+03  0.53599497367E+03  0.00000000000E+00 0. -1.
          6    1    1    2  501    0 -0.29467880970E+03 -0.11122789256E+03  0.32352899854E+01  0.35936988197E+03  0.17300000000E+03 0. -1.
         -6    1    1    2    0  503  0.29467880970E+03  0.11122789256E+03 -0.26773051423E+03  0.44812484111E+03  0.17300000000E+03 0.  1.
<mgrwt>
<rscale>  2 0.35935532E+03</rscale>
<asrwt>0</asrwt>
<pdfrwt beam="1">  1       21 0.41769193E-01 0.35935532E+03</pdfrwt>
<pdfrwt beam="2">  1       21 0.82460764E-01 0.35935532E+03</pdfrwt>
<totfact> 0.64655507E+03</totfact>
</mgrwt>
</event>
<event>
 4    1  0.4349106E+000  0.1821537E+03  0.7546771E-02  0.1165735E+00
         21   -1    0    0  503  502  0.00000000000E+00  0.00000000000E+00  0.76819130003E+02  0.76819130003E+02  0.00000000000E+00 0. -1.
         21   -1    0    0  501  503 -0.00000000000E+00 -0.00000000000E+00 -0.96101884507E+03  0.96101884507E+03  0.00000000000E+00 0. -1.
          6    1    1    2  501    0  0.21776518061E+02  0.52694751883E+02 -0.82713534725E+03  0.84695503794E+03  0.17300000000E+03 0. -1.
         -6    1    1    2    0  502 -0.21776518061E+02 -0.52694751883E+02 -0.57064367814E+02  0.19088293713E+03  0.17300000000E+03 0. -1.
<mgrwt>
<rscale>  2 0.18215365E+03</rscale>
<asrwt>0</asrwt>
<pdfrwt beam="1">  1       21 0.11818327E-01 0.18215365E+03</pdfrwt>
<pdfrwt beam="2">  1       21 0.14784906E+00 0.18215365E+03</pdfrwt>
<totfact> 0.18856264E+04</totfact>
</mgrwt>
</event>
<event>
 4    1  0.4349106E+000  0.2458511E+03  0.7546771E-02  0.1115955E+00
         21   -1    0    0  503  502  0.00000000000E+00  0.00000000000E+00  0.20796612077E+03  0.20796612077E+03  0.00000000000E+00 0. -1.
         21   -1    0    0  501  503 -0.00000000000E+00 -0.00000000000E+00 -0.43654044355E+03  0.43654044355E+03  0.00000000000E+00 0.  1.
          6    1    1    2  501    0 -0.17252317986E+03 -0.27377022807E+02 -0.30058901050E+03  0.38832525311E+03  0.17300000000E+03 0.  1.
         -6    1    1    2    0  502  0.17252317986E+03  0.27377022807E+02  0.72014687716E+02  0.25618131121E+03  0.17300000000E+03 0. -1.
<mgrwt>
<rscale>  2 0.24585107E+03</rscale>
<asrwt>0</asrwt>
<pdfrwt beam="1">  1       21 0.31994788E-01 0.24585107E+03</pdfrwt>
<pdfrwt beam="2">  1       21 0.67160068E-01 0.24585107E+03</pdfrwt>
<totfact> 0.18505567E+04</totfact>
</mgrwt>
</event>
<event>
 4    1  0.4349106E+000  0.1787897E+03  0.7546771E-02  0.1168980E+00
         21   -1    0    0  503  502  0.00000000000E+00  0.00000000000E+00  0.36734003816E+03  0.36734003816E+03  0.00000000000E+00 0.  1.
         21   -1    0    0  501  503 -0.00000000000E+00 -0.00000000000E+00 -0.14560544880E+03  0.14560544880E+03  0.00000000000E+00 0.  1.
          6    1    1    2  501    0 -0.14551696969E+02  0.42719965460E+02 -0.51818311075E+02  0.18614748104E+03  0.17300000000E+03 0.  1.
         -6    1    1    2    0  502  0.14551696969E+02 -0.42719965460E+02  0.27355290043E+03  0.32679800591E+03  0.17300000000E+03 0.  1.
<mgrwt>
<rscale>  2 0.17878967E+03</rscale>
<asrwt>0</asrwt>
<pdfrwt beam="1">  1       21 0.56513852E-01 0.17878967E+03</pdfrwt>
<pdfrwt beam="2">  1       21 0.22400838E-01 0.17878967E+03</pdfrwt>
<totfact> 0.55290106E+04</totfact>
</mgrwt>
</event>
<event>
 4    1  0.4349106E+000  0.1878153E+03  0.7546771E-02  0.1160447E+00
         21   -1    0    0  501  502  0.00000000000E+00  0.00000000000E+00  0.67311474858E+03  0.67311474858E+03  0.00000000000E+00 0.  1.
         21   -1    0    0  502  503 -0.00000000000E+00 -0.00000000000E+00 -0.16752255544E+03  0.16752255544E+03  0.00000000000E+00 0.  1.
          6    1    1    2  501    0 -0.47711882439E+02  0.55400003306E+02  0.60122388262E+03  0.62987676662E+03  0.17300000000E+03 0.  1.
         -6    1    1    2    0  503  0.47711882439E+02 -0.55400003306E+02 -0.95631689480E+02  0.21076053740E+03  0.17300000000E+03 0.  1.
<mgrwt>
<rscale>  2 0.18781529E+03</rscale>
<asrwt>0</asrwt>
<pdfrwt beam="1">  1       21 0.10355611E+00 0.18781529E+03</pdfrwt>
<pdfrwt beam="2">  1       21 0.25772701E-01 0.18781529E+03</pdfrwt>
<totfact> 0.10829654E+04</totfact>
</mgrwt>
</event>
<event>
 4    1  0.4349106E+000  0.1840502E+03  0.7546771E-02  0.1163940E+00
         21   -1    0    0  501  502  0.00000000000E+00  0.00000000000E+00  0.58660575105E+03  0.58660575105E+03  0.00000000000E+00 0.  1.
         21   -1    0    0  502  503 -0.00000000000E+00 -0.00000000000E+00 -0.69381821609E+02  0.69381821609E+02  0.00000000000E+00 0. -1.
          6    1    1    2  501    0  0.37691855584E+02 -0.50247434061E+02  0.39292876009E+03  0.43389801925E+03  0.17300000000E+03 0.  1.
         -6    1    1    2    0  503 -0.37691855584E+02  0.50247434061E+02  0.12429516935E+03  0.22208955340E+03  0.17300000000E+03 0. -1.
<mgrwt>
<rscale>  2 0.18405021E+03</rscale>
<asrwt>0</asrwt>
<pdfrwt beam="1">  1       21 0.90247035E-01 0.18405021E+03</pdfrwt>
<pdfrwt beam="2">  1       21 0.10674127E-01 0.18405021E+03</pdfrwt>
<totfact> 0.75753240E+04</totfact>
</mgrwt>
</event>
<event>
 4    1  0.4349106E+000  0.1966118E+03  0.7546771E-02  0.1152630E+00
         21   -1    0    0  503  502  0.00000000000E+00  0.00000000000E+00  0.23545515801E+02  0.23545515801E+02  0.00000000000E+00 0.  1.
         21   -1    0    0  501  503 -0.00000000000E+00 -0.00000000000E+00 -0.16428150523E+04  0.16428150523E+04  0.00000000000E+00 0.  1.
          6    1    1    2  501    0 -0.12323286518E+02  0.92603052123E+02 -0.83070564789E+03  0.85365570465E+03  0.17300000000E+03 0.  1.
         -6    1    1    2    0  502  0.12323286518E+02 -0.92603052123E+02 -0.78856388865E+03  0.81270486349E+03  0.17300000000E+03 0.  1.
<mgrwt>
<rscale>  2 0.19661177E+03</rscale>
<asrwt>0</asrwt>
<pdfrwt beam="1">  1       21 0.36223882E-02 0.19661177E+03</pdfrwt>
<pdfrwt beam="2">  1       21 0.25274070E+00 0.19661177E+03</pdfrwt>
<totfact> 0.29539018E+04</totfact>
</mgrwt>
</event>
<event>
 4    1  0.4349106E+000  0.2020905E+03  0.7546771E-02  0.1147987E+00
         21   -1    0    0  503  502  0.00000000000E+00  0.00000000000E+00  0.29502471088E+03  0.29502471088E+03  0.00000000000E+00 0.  1.
         21   -1    0    0  501  503 -0.00000000000E+00 -0.00000000000E+00 -0.14457250067E+03  0.14457250067E+03  0.00000000000E+00 0. -1.
          6    1    1    2  501    0  0.92195555268E+02 -0.49107346930E+02  0.12052848260E+03  0.23530335113E+03  0.17300000000E+03 0.  1.
         -6    1    1    2    0  502 -0.92195555268E+02  0.49107346930E+02  0.29923727610E+02  0.20429386043E+03  0.17300000000E+03 0. -1.
<mgrwt>
<rscale>  2 0.20209045E+03</rscale>
<asrwt>0</asrwt>
<pdfrwt beam="1">  1       21 0.45388417E-01 0.20209045E+03</pdfrwt>
<pdfrwt beam="2">  1       21 0.22241923E-01 0.20209045E+03</pdfrwt>
<totfact> 0.87686472E+04</totfact>
</mgrwt>
</event>
<event>
 4    1  0.4349106E+000  0.3854585E+03  0.7546771E-02  0.1048934E+00
         21   -1    0    0  501  502  0.00000000000E+00  0.00000000000E+00  0.51132945101E+03  0.51132945101E+03  0.00000000000E+00 0. -1.
         21   -1    0    0  502  503 -0.00000000000E+00 -0.00000000000E+00 -0.37383700698E+03  0.37383700698E+03  0.00000000000E+00 0.  1.
          6    1    1    2  501    0  0.32743352741E+03 -0.10694194149E+03  0.27761988318E+03  0.47502746579E+03  0.17300000000E+03 0.  1.
         -6    1    1    2    0  503 -0.32743352741E+03  0.10694194149E+03 -0.14012743916E+03  0.41013899220E+03  0.17300000000E+03 0. -1.
<mgrwt>
<rscale>  2 0.38545855E+03</rscale>
<asrwt>0</asrwt>
<pdfrwt beam="1">  1       21 0.78666069E-01 0.38545855E+03</pdfrwt>
<pdfrwt beam="2">  1       21 0.57513386E-01 0.38545855E+03</pdfrwt>
<totfact> 0.36274830E+03</totfact>
</mgrwt>
</event>
<event>
 4    1  0.4349106E+000  0.1986615E+03  0.7546771E-02  0.1150873E+00
         21   -1    0    0  503  502  0.00000000000E+00  0.00000000000E+00  0.13739290029E+03  0.13739290029E+03  0.00000000000E+00 0. -1.
         21   -1    0    0  501  503 -0.00000000000E+00 -0.00000000000E+00 -0.43475837669E+03  0.43475837669E+03  0.00000000000E+00 0. -1.
          6    1    1    2  501    0  0.58561461274E+02  0.78153303441E+02 -0.31531623714E+03  0.37268044353E+03  0.17300000000E+03 0. -1.
         -6    1    1    2    0  502 -0.58561461274E+02 -0.78153303441E+02  0.17950760735E+02  0.19947083345E+03  0.17300000000E+03 0. -1.
<mgrwt>
<rscale>  2 0.19866148E+03</rscale>
<asrwt>0</asrwt>
<pdfrwt beam="1">  1       21 0.21137369E-01 0.19866148E+03</pdfrwt>
<pdfrwt beam="2">  1       21 0.66885904E-01 0.19866148E+03</pdfrwt>
<totfact> 0.42483947E+04</totfact>
</mgrwt>
</event>
<event>
 4    1  0.4349106E+000  0.2120151E+03  0.7546771E-02  0.1139980E+00
         21   -1    0    0  501  502  0.00000000000E+00  0.00000000000E+00  0.64849229198E+02  0.64849229198E+02  0.00000000000E+00 0. -1.
         21   -1    0    0  502  503 -0.00000000000E+00 -0.00000000000E+00 -0.71635108551E+03  0.71635108551E+03  0.00000000000E+00 0. -1.
          6    1    1    2  501    0  0.35284044211E+02 -0.11737305539E+03 -0.25545967630E+03  0.33197898145E+03  0.17300000000E+03 0.  1.
         -6    1    1    2    0  503 -0.35284044211E+02  0.11737305539E+03 -0.39604218001E+03  0.44922133326E+03  0.17300000000E+03 0.  1.
<mgrwt>
<rscale>  2 0.21201509E+03</rscale>
<asrwt>0</asrwt>
<pdfrwt beam="1">  1       21 0.99768052E-02 0.21201509E+03</pdfrwt>
<pdfrwt beam="2">  1       21 0.11020785E+00 0.21201509E+03</pdfrwt>
<totfact> 0.52451323E+04</totfact>
</mgrwt>
</event>
<event>
 4    1  0.4349106E+000  0.1899452E+03  0.7546771E-02  0.1158511E+00
         21   -1    0    0  501  502  0.00000000000E+00  0.00000000000E+00  0.23327871101E+03  0.23327871101E+03  0.00000000000E+00 0.  1.
         21   -1    0    0  502  503 -0.00000000000E+00 -0.00000000000E+00 -0.15759603290E+03  0.15759603290E+03  0.00000000000E+00 0. -1.
          6    1    1    2  501    0 -0.70046271449E+02  0.35266350688E+02  0.64510973705E+02  0.20060124965E+03  0.17300000000E+03 0.  1.
         -6    1    1    2    0  503  0.70046271449E+02 -0.35266350688E+02  0.11171704406E+02  0.19027349425E+03  0.17300000000E+03 0. -1.
<mgrwt>
<rscale>  2 0.18994524E+03</rscale>
<asrwt>0</asrwt>
<pdfrwt beam="1">  1       21 0.35889033E-01 0.18994524E+03</pdfrwt>
<pdfrwt beam="2">  1       21 0.24245543E-01 0.18994524E+03</pdfrwt>
<totfact> 0.12033583E+05</totfact>
</mgrwt>
</event>
<event>
 4    1  0.4349106E+000  0.1954569E+03  0.7546771E-02  0.1153630E+00
         21   -1    0    0  503  502  0.00000000000E+00  0.00000000000E+00  0.58486766597E+02  0.58486766597E+02  0.00000000000E+00 0. -1.
         21   -1    0    0  501  503 -0.00000000000E+00 -0.00000000000E+00 -0.12456490458E+04  0.12456490458E+04  0.00000000000E+00 0. -1.
          6    1    1    2  501    0 -0.80995935439E+02  0.41401112028E+02 -0.10432796975E+04  0.10614310721E+04  0.17300000000E+03 0. -1.
         -6    1    1    2    0  502  0.80995935439E+02 -0.41401112028E+02 -0.14388258169E+03  0.24270474027E+03  0.17300000000E+03 0. -1.
<mgrwt>
<rscale>  2 0.19545688E+03</rscale>
<asrwt>0</asrwt>
<pdfrwt beam="1">  1       21 0.89979640E-02 0.19545688E+03</pdfrwt>
<pdfrwt beam="2">  1       21 0.19163832E+00 0.19545688E+03</pdfrwt>
<totfact> 0.14836077E+04</totfact>
</mgrwt>
</event>
<event>
 4    1  0.4349106E+000  0.2011260E+03  0.7546771E-02  0.1148793E+00
         21   -1    0    0  501  502  0.00000000000E+00  0.00000000000E+00  0.17066125502E+03  0.17066125502E+03  0.00000000000E+00 0.  1.
         21   -1    0    0  502  503 -0.00000000000E+00 -0.00000000000E+00 -0.38545929222E+03  0.38545929222E+03  0.00000000000E+00 0.  1.
          6    1    1    2  501    0  0.66135642130E+02 -0.78413821374E+02  0.65149444358E+02  0.21141452325E+03  0.17300000000E+03 0.  1.
         -6    1    1    2    0  503 -0.66135642130E+02  0.78413821374E+02 -0.27994748155E+03  0.34470602398E+03  0.17300000000E+03 0.  1.
<mgrwt>
<rscale>  2 0.20112596E+03</rscale>
<asrwt>0</asrwt>
<pdfrwt beam="1">  1       21 0.26255578E-01 0.20112596E+03</pdfrwt>
<pdfrwt beam="2">  1       21 0.59301429E-01 0.20112596E+03</pdfrwt>
<totfact> 0.36479496E+04</totfact>
</mgrwt>
</event>
<event>
 4    1  0.4349106E+000  0.1743126E+03  0.7546771E-02  0.1173424E+00
         21   -1    0    0  503  502  0.00000000000E+00  0.00000000000E+00  0.10554251040E+03  0.10554251040E+03  0.00000000000E+00 0. -1.
         21   -1    0    0  501  503 -0.00000000000E+00 -0.00000000000E+00 -0.74142410745E+03  0.74142410745E+03  0.00000000000E+00 0. -1.
          6    1    1    2  501    0  0.10961126109E+01 -0.21323142881E+02 -0.64915337074E+03  0.67214951955E+03  0.17300000000E+03 0. -1.
         -6    1    1    2    0  502 -0.10961126109E+01  0.21323142881E+02  0.13271773691E+02  0.17481709831E+03  0.17300000000E+03 0. -1.
<mgrwt>
<rscale>  2 0.17431259E+03</rscale>
<asrwt>0</asrwt>
<pdfrwt beam="1">  1       21 0.16237309E-01 0.17431259E+03</pdfrwt>
<pdfrwt beam="2">  1       21 0.11406525E+00 0.17431259E+03</pdfrwt>
<totfact> 0.20535946E+04</totfact>
</mgrwt>
</event>
<event>
 4    1  0.4349106E+000  0.1944213E+03  0.7546771E-02  0.1154533E+00
         21   -1    0    0  503  502  0.00000000000E+00  0.00000000000E+00  0.17373509618E+03  0.17373509618E+03  0.00000000000E+00 0. -1.
         21   -1    0    0  501  503 -0.00000000000E+00 -0.00000000000E+00 -0.23065961944E+03  0.23065961944E+03  0.00000000000E+00 0.  1.
          6    1    1    2  501    0  0.86446475689E+02 -0.19941479218E+02 -0.76628486981E+02  0.20897746474E+03  0.17300000000E+03 0.  1.
         -6    1    1    2    0  502 -0.86446475689E+02  0.19941479218E+02  0.19703963722E+02  0.19541725087E+03  0.17300000000E+03 0.  1.
<mgrwt>
<rscale>  2 0.19442134E+03</rscale>
<asrwt>0</asrwt>
<pdfrwt beam="1">  1       21 0.26728476E-01 0.19442134E+03</pdfrwt>
<pdfrwt beam="2">  1       21 0.35486095E-01 0.19442134E+03</pdfrwt>
<totfact> 0.10196599E+05</totfact>
</mgrwt>
</event>
<event>
 4    1  0.4349106E+000  0.1898420E+03  0.7546771E-02  0.1158604E+00
         21   -1    0    0  501  502  0.00000000000E+00  0.00000000000E+00  0.82601749433E+03  0.82601749433E+03  0.00000000000E+00 0.  1.
         21   -1    0    0  502  503 -0.00000000000E+00 -0.00000000000E+00 -0.43652545218E+02  0.43652545218E+02  0.00000000000E+00 0.  1.
          6    1    1    2  501    0  0.76553158878E+02 -0.15829788415E+02  0.40084313649E+03  0.44352585991E+03  0.17300000000E+03 0.  1.
         -6    1    1    2    0  503 -0.76553158878E+02  0.15829788415E+02  0.38152181262E+03  0.42614417964E+03  0.17300000000E+03 0.  1.
<mgrwt>
<rscale>  2 0.18984196E+03</rscale>
<asrwt>0</asrwt>
<pdfrwt beam="1">  1       21 0.12707960E+00 0.18984196E+03</pdfrwt>
<pdfrwt beam="2">  1       21 0.67157768E-02 0.18984196E+03</pdfrwt>
<totfact> 0.74466461E+04</totfact>
</mgrwt>
</event>
<event>
 4    1  0.4349106E+000  0.2045596E+03  0.7546771E-02  0.1145948E+00
         21   -1    0    0  503  502  0.00000000000E+00  0.00000000000E+00  0.15419709108E+03  0.15419709108E+03  0.00000000000E+00 0.  1.
         21   -1    0    0  501  503 -0.00000000000E+00 -0.00000000000E+00 -0.34447598445E+03  0.34447598445E+03  0.00000000000E+00 0. -1.
          6    1    1    2  501    0 -0.92075945194E+02  0.58631494742E+02 -0.21000232442E+03  0.29316481392E+03  0.17300000000E+03 0. -1.
         -6    1    1    2    0  502  0.92075945194E+02 -0.58631494742E+02  0.19723431052E+02  0.20550826161E+03  0.17300000000E+03 0.  1.
<mgrwt>
<rscale>  2 0.20455960E+03</rscale>
<asrwt>0</asrwt>
<pdfrwt beam="1">  1       21 0.23722629E-01 0.20455960E+03</pdfrwt>
<pdfrwt beam="2">  1       21 0.52996305E-01 0.20455960E+03</pdfrwt>
<totfact> 0.56139954E+04</totfact>
</mgrwt>
</event>
<event>
 4    1  0.4349106E+000  0.2219781E+03  0.7546771E-02  0.1132417E+00
         21   -1    0    0  501  502  0.00000000000E+00  0.00000000000E+00  0.11624472848E+04  0.11624472848E+04  0.00000000000E+00 0.  1.
         21   -1    0    0  502  503 -0.00000000000E+00 -0.00000000000E+00 -0.44306414796E+02  0.44306414796E+02  0.00000000000E+00 0. -1.
          6    1    1    2  501    0 -0.12977893510E+03 -0.50026944472E+02  0.68461057606E+03  0.71969848411E+03  0.17300000000E+03 0.  1.
         -6    1    1    2    0  503  0.12977893510E+03  0.50026944472E+02  0.43353029393E+03  0.48705521548E+03  0.17300000000E+03 0. -1.
<mgrwt>
<rscale>  2 0.22197808E+03</rscale>
<asrwt>0</asrwt>
<pdfrwt beam="1">  1       21 0.17883802E+00 0.22197808E+03</pdfrwt>
<pdfrwt beam="2">  1       21 0.68163724E-02 0.22197808E+03</pdfrwt>
<totfact> 0.28789761E+04</totfact>
</mgrwt>
</event>
<event>
 4    1  0.4349106E+000  0.1882362E+03  0.7546771E-02  0.1160062E+00
         21   -1    0    0  501  502  0.00000000000E+00  0.00000000000E+00  0.49040941524E+02  0.49040941524E+02  0.00000000000E+00 0. -1.
         21   -1    0    0  502  503 -0.00000000000E+00 -0.00000000000E+00 -0.75923603693E+03  0.75923603693E+03  0.00000000000E+00 0. -1.
          6    1    1    2  501    0  0.71883999412E+02  0.18345050189E+02 -0.26621937230E+03  0.32604540240E+03  0.17300000000E+03 0. -1.
         -6    1    1    2    0  503 -0.71883999412E+02 -0.18345050189E+02 -0.44397572311E+03  0.48223157606E+03  0.17300000000E+03 0. -1.
<mgrwt>
<rscale>  2 0.18823616E+03</rscale>
<asrwt>0</asrwt>
<pdfrwt beam="1">  1       21 0.75447610E-02 0.18823616E+03</pdfrwt>
<pdfrwt beam="2">  1       21 0.11680553E+00 0.18823616E+03</pdfrwt>
<totfact> 0.75139048E+04</totfact>
</mgrwt>
</event>
<event>
 4    1  0.4349106E+000  0.2491771E+03  0.7546771E-02  0.1113826E+00
         21   -1    0    0  503  502  0.00000000000E+00  0.00000000000E+00  0.41471218694E+02  0.41471218694E+02  0.00000000000E+00 0. -1.
         21   -1    0    0  501  503 -0.00000000000E+00 -0.00000000000E+00 -0.16073642591E+04  0.16073642591E+04  0.00000000000E+00 0. -1.
          6    1    1    2  501    0 -0.11897180247E+03 -0.13418612745E+03 -0.99881136174E+03  0.10294237917E+04  0.17300000000E+03 0. -1.
         -6    1    1    2    0  502  0.11897180247E+03  0.13418612745E+03 -0.56708167864E+03  0.61941168606E+03  0.17300000000E+03 0. -1.
<mgrwt>
<rscale>  2 0.24917706E+03</rscale>
<asrwt>0</asrwt>
<pdfrwt beam="1">  1       21 0.63801876E-02 0.24917706E+03</pdfrwt>
<pdfrwt beam="2">  1       21 0.24728680E+00 0.24917706E+03</pdfrwt>
<totfact> 0.11680320E+04</totfact>
</mgrwt>
</event>
<event>
 4    1  0.4349106E+000  0.1854141E+03  0.7546771E-02  0.1162664E+00
         21   -1    0    0  501  502  0.00000000000E+00  0.00000000000E+00  0.43045371404E+03  0.43045371404E+03  0.00000000000E+00 0. -1.
         21   -1    0    0  502  503 -0.00000000000E+00 -0.00000000000E+00 -0.11727144401E+03  0.11727144401E+03  0.00000000000E+00 0. -1.
          6    1    1    2  501    0  0.65698253941E+02  0.11538178750E+02  0.31126146597E+03  0.36230110452E+03  0.17300000000E+03 0. -1.
         -6    1    1    2    0  503 -0.65698253941E+02 -0.11538178750E+02  0.19208040612E+01  0.18542405353E+03  0.17300000000E+03 0. -1.
<mgrwt>
<rscale>  2 0.18541410E+03</rscale>
<asrwt>0</asrwt>
<pdfrwt beam="1">  1       21 0.66223648E-01 0.18541410E+03</pdfrwt>
<pdfrwt beam="2">  1       21 0.18041761E-01 0.18541410E+03</pdfrwt>
<totfact> 0.58693769E+04</totfact>
</mgrwt>
</event>
<event>
 4    1  0.4349106E+000  0.1770913E+03  0.7546771E-02  0.1170648E+00
         21   -1    0    0  503  502  0.00000000000E+00  0.00000000000E+00  0.15030769380E+03  0.15030769380E+03  0.00000000000E+00 0.  1.
         21   -1    0    0  501  503 -0.00000000000E+00 -0.00000000000E+00 -0.21278083433E+03  0.21278083433E+03  0.00000000000E+00 0.  1.
          6    1    1    2  501    0 -0.26551410575E+02 -0.26969202760E+02 -0.59337007810E+01  0.17719064339E+03  0.17300000000E+03 0. -1.
         -6    1    1    2    0  502  0.26551410575E+02  0.26969202760E+02 -0.56539439751E+02  0.18589788473E+03  0.17300000000E+03 0. -1.
<mgrwt>
<rscale>  2 0.17709126E+03</rscale>
<asrwt>0</asrwt>
<pdfrwt beam="1">  1       21 0.23124261E-01 0.17709126E+03</pdfrwt>
<pdfrwt beam="2">  1       21 0.32735513E-01 0.17709126E+03</pdfrwt>
<totfact> 0.15857110E+05</totfact>
</mgrwt>
</event>
<event>
 4    1  0.4349106E+000  0.2490361E+03  0.7546771E-02  0.1113915E+00
         21   -1    0    0  503  502  0.00000000000E+00  0.00000000000E+00  0.11721383339E+03  0.11721383339E+03  0.00000000000E+00 0.  1.
         21   -1    0    0  501  503 -0.00000000000E+00 -0.00000000000E+00 -0.11378808983E+04  0.11378808983E+04  0.00000000000E+00 0. -1.
          6    1    1    2  501    0  0.90317059479E+02 -0.15470232600E+03 -0.96934669760E+03  0.10008256597E+04  0.17300000000E+03 0. -1.
         -6    1    1    2    0  502 -0.90317059479E+02  0.15470232600E+03 -0.51320367347E+02  0.25426907206E+03  0.17300000000E+03 0.  1.
<mgrwt>
<rscale>  2 0.24903610E+03</rscale>
<asrwt>0</asrwt>
<pdfrwt beam="1">  1       21 0.18032897E-01 0.24903610E+03</pdfrwt>
<pdfrwt beam="2">  1       21 0.17505860E+00 0.24903610E+03</pdfrwt>
<totfact> 0.52663565E+03</totfact>
</mgrwt>
</event>
<event>
 4    1  0.4349106E+000  0.1761905E+03  0.7546771E-02  0.1171542E+00
         21   -1    0    0  503  502  0.00000000000E+00  0.00000000000E+00  0.10639845988E+04  0.10639845988E+04  0.00000000000E+00 0.  1.
         21   -1    0    0  501  503 -0.00000000000E+00 -0.00000000000E+00 -0.60784963082E+02  0.60784963082E+02  0.00000000000E+00 0.  1.
          6    1    1    2  501    0 -0.33355323136E+02  0.12326034315E+01  0.96055068314E+02  0.20067305011E+03  0.17300000000E+03 0.  1.
         -6    1    1    2    0  502  0.33355323136E+02 -0.12326034315E+01  0.90714456743E+03  0.92409651180E+03  0.17300000000E+03 0.  1.
<mgrwt>
<rscale>  2 0.17619051E+03</rscale>
<asrwt>0</asrwt>
<pdfrwt beam="1">  1       21 0.16368992E+00 0.17619051E+03</pdfrwt>
<pdfrwt beam="2">  1       21 0.93515336E-02 0.17619051E+03</pdfrwt>
<totfact> 0.21858642E+04</totfact>
</mgrwt>
</event>
<event>
 4    1  0.4349106E+000  0.1810069E+03  0.7546771E-02  0.1166832E+00
         21   -1    0    0  501  502  0.00000000000E+00  0.00000000000E+00  0.22549578457E+03  0.22549578457E+03  0.00000000000E+00 0. -1.
         21   -1    0    0  502  503 -0.00000000000E+00 -0.00000000000E+00 -0.15388965036E+03  0.15388965036E+03  0.00000000000E+00 0. -1.
          6    1    1    2  501    0  0.38988914410E+02  0.36254355118E+02 -0.90248375928E+01  0.18123178917E+03  0.17300000000E+03 0. -1.
         -6    1    1    2    0  503 -0.38988914410E+02 -0.36254355118E+02  0.80630971803E+02  0.19815364575E+03  0.17300000000E+03 0. -1.
<mgrwt>
<rscale>  2 0.18100694E+03</rscale>
<asrwt>0</asrwt>
<pdfrwt beam="1">  1       21 0.34691659E-01 0.18100694E+03</pdfrwt>
<pdfrwt beam="2">  1       21 0.23675331E-01 0.18100694E+03</pdfrwt>
<totfact> 0.13507982E+05</totfact>
</mgrwt>
</event>
<event>
 4    1  0.4349106E+000  0.1780417E+03  0.7546771E-02  0.1169712E+00
         21   -1    0    0  503  502  0.00000000000E+00  0.00000000000E+00  0.50328901135E+03  0.50328901135E+03  0.00000000000E+00 0. -1.
         21   -1    0    0  501  503 -0.00000000000E+00 -0.00000000000E+00 -0.25070587051E+03  0.25070587051E+03  0.00000000000E+00 0.  1.
          6    1    1    2  501    0  0.40025268142E+02  0.12954090845E+02 -0.19993124601E+03  0.26771502328E+03  0.17300000000E+03 0.  1.
         -6    1    1    2    0  502 -0.40025268142E+02 -0.12954090845E+02  0.45251438684E+03  0.48627985858E+03  0.17300000000E+03 0. -1.
<mgrwt>
<rscale>  2 0.17804165E+03</rscale>
<asrwt>0</asrwt>
<pdfrwt beam="1">  1       21 0.77429079E-01 0.17804165E+03</pdfrwt>
<pdfrwt beam="2">  1       21 0.38570134E-01 0.17804165E+03</pdfrwt>
<totfact> 0.96951829E+03</totfact>
</mgrwt>
</event>
<event>
 4    1  0.4349106E+000  0.1811561E+03  0.7546771E-02  0.1166689E+00
         21   -1    0    0  501  502  0.00000000000E+00  0.00000000000E+00  0.86435929040E+03  0.86435929040E+03  0.00000000000E+00 0.  1.
         21   -1    0    0  502  503 -0.00000000000E+00 -0.00000000000E+00 -0.58672922377E+02  0.58672922377E+02  0.00000000000E+00 0.  1.
          6    1    1    2  501    0 -0.27699342081E+02  0.46057217764E+02  0.67700725518E+03  0.70082547359E+03  0.17300000000E+03 0.  1.
         -6    1    1    2    0  503  0.27699342081E+02 -0.46057217764E+02  0.12867911284E+03  0.22220673919E+03  0.17300000000E+03 0.  1.
<mgrwt>
<rscale>  2 0.18115607E+03</rscale>
<asrwt>0</asrwt>
<pdfrwt beam="1">  1       21 0.13297834E+00 0.18115607E+03</pdfrwt>
<pdfrwt beam="2">  1       21 0.90266041E-02 0.18115607E+03</pdfrwt>
<totfact> 0.39924322E+04</totfact>
</mgrwt>
</event>
<event>
 4    1  0.4349106E+000  0.2809762E+03  0.7546771E-02  0.1095157E+00
         21   -1    0    0  503  502  0.00000000000E+00  0.00000000000E+00  0.64874509836E+03  0.64874509836E+03  0.00000000000E+00 0.  1.
         21   -1    0    0  501  503 -0.00000000000E+00 -0.00000000000E+00 -0.19575187200E+03  0.19575187200E+03  0.00000000000E+00 0.  1.
          6    1    1    2  501    0  0.16655127927E+03 -0.14587425916E+03 -0.33222659511E+02  0.28293351377E+03  0.17300000000E+03 0.  1.
         -6    1    1    2    0  502 -0.16655127927E+03  0.14587425916E+03  0.48621588587E+03  0.56156345660E+03  0.17300000000E+03 0.  1.
<mgrwt>
<rscale>  2 0.28097621E+03</rscale>
<asrwt>0</asrwt>
<pdfrwt beam="1">  1       21 0.99806937E-01 0.28097621E+03</pdfrwt>
<pdfrwt beam="2">  1       21 0.30115673E-01 0.28097621E+03</pdfrwt>
<totfact> 0.82596977E+03</totfact>
</mgrwt>
</event>
<event>
 4    1  0.4349106E+000  0.1801246E+03  0.7546771E-02  0.1167683E+00
         21   -1    0    0  501  502  0.00000000000E+00  0.00000000000E+00  0.20325938107E+03  0.20325938107E+03  0.00000000000E+00 0.  1.
         21   -1    0    0  502  503 -0.00000000000E+00 -0.00000000000E+00 -0.16774805960E+03  0.16774805960E+03  0.00000000000E+00 0.  1.
          6    1    1    2  501    0 -0.29326084970E+02  0.40692183428E+02  0.58581679878E+02  0.18941142064E+03  0.17300000000E+03 0. -1.
         -6    1    1    2    0  503  0.29326084970E+02 -0.40692183428E+02 -0.23070358406E+02  0.18159602002E+03  0.17300000000E+03 0. -1.
<mgrwt>
<rscale>  2 0.18012460E+03</rscale>
<asrwt>0</asrwt>
<pdfrwt beam="1">  1       21 0.31270674E-01 0.18012460E+03</pdfrwt>
<pdfrwt beam="2">  1       21 0.25807394E-01 0.18012460E+03</pdfrwt>
<totfact> 0.14064328E+05</totfact>
</mgrwt>
</event>
<event>
 4    1  0.4349106E+000  0.2574871E+03  0.7546771E-02  0.1108662E+00
         21   -1    0    0  503  502  0.00000000000E+00  0.00000000000E+00  0.96058191647E+02  0.96058191647E+02  0.00000000000E+00 0. -1.
         21   -1    0    0  501  503 -0.00000000000E+00 -0.00000000000E+00 -0.70369403462E+03  0.70369403462E+03  0.00000000000E+00 0. -1.
          6    1    1    2  501    0 -0.19009686226E+03 -0.15290962356E+02 -0.35918603860E+03  0.44194370783E+03  0.17300000000E+03 0. -1.
         -6    1    1    2    0  502  0.19009686226E+03  0.15290962356E+02 -0.24844980437E+03  0.35780851843E+03  0.17300000000E+03 0. -1.
<mgrwt>
<rscale>  2 0.25748715E+03</rscale>
<asrwt>0</asrwt>
<pdfrwt beam="1">  1       21 0.14778183E-01 0.25748715E+03</pdfrwt>
<pdfrwt beam="2">  1       21 0.10826062E+00 0.25748715E+03</pdfrwt>
<totfact> 0.26430637E+04</totfact>
</mgrwt>
</event>
<event>
 4    1  0.4349106E+000  0.1761378E+03  0.7546771E-02  0.1171594E+00
         21   -1    0    0  503  502  0.00000000000E+00  0.00000000000E+00  0.41212526816E+02  0.41212526816E+02  0.00000000000E+00 0.  1.
         21   -1    0    0  501  503 -0.00000000000E+00 -0.00000000000E+00 -0.77374583651E+03  0.77374583651E+03  0.00000000000E+00 0.  1.
          6    1    1    2  501    0 -0.31269762130E+02 -0.10850156205E+02 -0.43332025320E+03  0.46775096552E+03  0.17300000000E+03 0. -1.
         -6    1    1    2    0  502  0.31269762130E+02  0.10850156205E+02 -0.29921305650E+03  0.34720739781E+03  0.17300000000E+03 0. -1.
<mgrwt>
<rscale>  2 0.17613780E+03</rscale>
<asrwt>0</asrwt>
<pdfrwt beam="1">  1       21 0.63403888E-02 0.17613780E+03</pdfrwt>
<pdfrwt beam="2">  1       21 0.11903782E+00 0.17613780E+03</pdfrwt>
<totfact> 0.97340527E+04</totfact>
</mgrwt>
</event>
<event>
 4    1  0.4349106E+000  0.2098130E+03  0.7546771E-02  0.1141714E+00
         21   -1    0    0  501  502  0.00000000000E+00  0.00000000000E+00  0.42838184063E+03  0.42838184063E+03  0.00000000000E+00 0. -1.
         21   -1    0    0  502  503 -0.00000000000E+00 -0.00000000000E+00 -0.15893739045E+03  0.15893739045E+03  0.00000000000E+00 0. -1.
          6    1    1    2  501    0  0.56866999985E+02  0.10420476155E+03 -0.39861282281E+02  0.21356593792E+03  0.17300000000E+03 0. -1.
         -6    1    1    2    0  503 -0.56866999985E+02 -0.10420476155E+03  0.30930573246E+03  0.37375329316E+03  0.17300000000E+03 0. -1.
<mgrwt>
<rscale>  2 0.20981298E+03</rscale>
<asrwt>0</asrwt>
<pdfrwt beam="1">  1       21 0.65904898E-01 0.20981298E+03</pdfrwt>
<pdfrwt beam="2">  1       21 0.24451906E-01 0.20981298E+03</pdfrwt>
<totfact> 0.33108968E+04</totfact>
</mgrwt>
</event>
<event>
 4    1  0.4349106E+000  0.2075500E+03  0.7546771E-02  0.1143521E+00
         21   -1    0    0  503  502  0.00000000000E+00  0.00000000000E+00  0.73163090395E+02  0.73163090395E+02  0.00000000000E+00 0.  1.
         21   -1    0    0  501  503 -0.00000000000E+00 -0.00000000000E+00 -0.16836262827E+04  0.16836262827E+04  0.00000000000E+00 0.  1.
          6    1    1    2  501    0  0.61423274905E+02 -0.96825638202E+02 -0.15135740425E+04  0.15277380028E+04  0.17300000000E+03 0.  1.
         -6    1    1    2    0  502 -0.61423274905E+02  0.96825638202E+02 -0.96889149825E+02  0.22905137037E+03  0.17300000000E+03 0.  1.
<mgrwt>
<rscale>  2 0.20755005E+03</rscale>
<asrwt>0</asrwt>
<pdfrwt beam="1">  1       21 0.11255860E-01 0.20755005E+03</pdfrwt>
<pdfrwt beam="2">  1       21 0.25901942E+00 0.20755005E+03</pdfrwt>
<totfact> 0.38125384E+03</totfact>
</mgrwt>
</event>
<event>
 4    1  0.4349106E+000  0.1838611E+03  0.7546771E-02  0.1164118E+00
         21   -1    0    0  503  502  0.00000000000E+00  0.00000000000E+00  0.64097800661E+02  0.64097800661E+02  0.00000000000E+00 0.  1.
         21   -1    0    0  501  503 -0.00000000000E+00 -0.00000000000E+00 -0.56419720258E+03  0.56419720258E+03  0.00000000000E+00 0.  1.
          6    1    1    2  501    0 -0.62256669158E+02  0.74897859635E-01 -0.33028241294E+03  0.37800974956E+03  0.17300000000E+03 0.  1.
         -6    1    1    2    0  502  0.62256669158E+02 -0.74897859635E-01 -0.16981698898E+03  0.25028525368E+03  0.17300000000E+03 0.  1.
<mgrwt>
<rscale>  2 0.18386108E+03</rscale>
<asrwt>0</asrwt>
<pdfrwt beam="1">  1       21 0.98612002E-02 0.18386108E+03</pdfrwt>
<pdfrwt beam="2">  1       21 0.86799568E-01 0.18386108E+03</pdfrwt>
<totfact> 0.95326129E+04</totfact>
</mgrwt>
</event>
<event>
 4    1  0.4349106E+000  0.1973568E+03  0.7546771E-02  0.1151988E+00
         21   -1    0    0  503  502  0.00000000000E+00  0.00000000000E+00  0.60158873028E+02  0.60158873028E+02  0.00000000000E+00 0. -1.
         21   -1    0    0  501  503 -0.00000000000E+00 -0.00000000000E+00 -0.99339698818E+03  0.99339698818E+03  0.00000000000E+00 0. -1.
          6    1    1    2  501    0  0.78900762001E+02  0.52871209508E+02 -0.77748466386E+03  0.80214219286E+03  0.17300000000E+03 0. -1.
         -6    1    1    2    0  502 -0.78900762001E+02 -0.52871209508E+02 -0.15575345129E+03  0.25141366834E+03  0.17300000000E+03 0. -1.
<mgrwt>
<rscale>  2 0.19735677E+03</rscale>
<asrwt>0</asrwt>
<pdfrwt beam="1">  1       21 0.92552114E-02 0.19735677E+03</pdfrwt>
<pdfrwt beam="2">  1       21 0.15283030E+00 0.19735677E+03</pdfrwt>
<totfact> 0.26380039E+04</totfact>
</mgrwt>
</event>
<event>
 4    1  0.4349106E+000  0.1843006E+03  0.7546771E-02  0.1163705E+00
         21   -1    0    0  503  502  0.00000000000E+00  0.00000000000E+00  0.11035496337E+03  0.11035496337E+03  0.00000000000E+00 0.  1.
         21   -1    0    0  501  503 -0.00000000000E+00 -0.00000000000E+00 -0.69036438774E+03  0.69036438774E+03  0.00000000000E+00 0.  1.
          6    1    1    2  501    0 -0.17498062790E+02  0.61086333885E+02 -0.58803895254E+03  0.61624389010E+03  0.17300000000E+03 0.  1.
         -6    1    1    2    0  502  0.17498062790E+02 -0.61086333885E+02  0.80295281674E+01  0.18447546100E+03  0.17300000000E+03 0.  1.
<mgrwt>
<rscale>  2 0.18430063E+03</rscale>
<asrwt>0</asrwt>
<pdfrwt beam="1">  1       21 0.16977687E-01 0.18430063E+03</pdfrwt>
<pdfrwt beam="2">  1       21 0.10620990E+00 0.18430063E+03</pdfrwt>
<totfact> 0.22340244E+04</totfact>
</mgrwt>
</event>
<event>
 4    1  0.4349106E+000  0.3063388E+03  0.7546771E-02  0.1082114E+00
         21   -1    0    0  503  502  0.00000000000E+00  0.00000000000E+00  0.72615359984E+02  0.72615359984E+02  0.00000000000E+00 0. -1.
         21   -1    0    0  501  503 -0.00000000000E+00 -0.00000000000E+00 -0.13001390896E+04  0.13001390896E+04  0.00000000000E+00 0.  1.
          6    1    1    2  501    0  0.21158815682E+03  0.13836510935E+03 -0.56058799218E+03  0.63882888834E+03  0.17300000000E+03 0.  1.
         -6    1    1    2    0  502 -0.21158815682E+03 -0.13836510935E+03 -0.66693573746E+03  0.73392556128E+03  0.17300000000E+03 0.  1.
<mgrwt>
<rscale>  2 0.30633879E+03</rscale>
<asrwt>0</asrwt>
<pdfrwt beam="1">  1       21 0.11171595E-01 0.30633879E+03</pdfrwt>
<pdfrwt beam="2">  1       21 0.20002139E+00 0.30633879E+03</pdfrwt>
<totfact> 0.82722649E+03</totfact>
</mgrwt>
</event>
<event>
 4    1  0.4349106E+000  0.2444137E+03  0.7546771E-02  0.1116887E+00
         21   -1    0    0  501  502  0.00000000000E+00  0.00000000000E+00  0.62286242487E+03  0.62286242487E+03  0.00000000000E+00 0.  1.
         21   -1    0    0  502  503 -0.00000000000E+00 -0.00000000000E+00 -0.23662369809E+03  0.23662369809E+03  0.00000000000E+00 0.  1.
          6    1    1    2  501    0 -0.15690252523E+03  0.72046182828E+02  0.52451716914E+03  0.57866770742E+03  0.17300000000E+03 0.  1.
         -6    1    1    2    0  503  0.15690252523E+03 -0.72046182828E+02 -0.13827844236E+03  0.28081841554E+03  0.17300000000E+03 0.  1.
<mgrwt>
<rscale>  2 0.24441370E+03</rscale>
<asrwt>0</asrwt>
<pdfrwt beam="1">  1       21 0.95824988E-01 0.24441370E+03</pdfrwt>
<pdfrwt beam="2">  1       21 0.36403646E-01 0.24441370E+03</pdfrwt>
<totfact> 0.63731526E+03</totfact>
</mgrwt>
</event>
<event>
 4    1  0.4349106E+000  0.2754169E+03  0.7546771E-02  0.1098219E+00
         21   -1    0    0  501  502  0.00000000000E+00  0.00000000000E+00  0.77685229058E+03  0.77685229058E+03  0.00000000000E+00 0. -1.
         21   -1    0    0  502  503 -0.00000000000E+00 -0.00000000000E+00 -0.22814123317E+03  0.22814123317E+03  0.00000000000E+00 0. -1.
          6    1    1    2  501    0 -0.11963853783E+03 -0.17779791679E+03  0.65439881798E+03  0.70999457175E+03  0.17300000000E+03 0. -1.
         -6    1    1    2    0  503  0.11963853783E+03  0.17779791679E+03 -0.10568776057E+03  0.29499895200E+03  0.17300000000E+03 0. -1.
<mgrwt>
<rscale>  2 0.27541692E+03</rscale>
<asrwt>0</asrwt>
<pdfrwt beam="1">  1       21 0.11951574E+00 0.27541692E+03</pdfrwt>
<pdfrwt beam="2">  1       21 0.35098652E-01 0.27541692E+03</pdfrwt>
<totfact> 0.39349683E+03</totfact>
</mgrwt>
</event>
<event>
 4    1  0.4349106E+000  0.1988713E+03  0.7546771E-02  0.1150695E+00
         21   -1    0    0  503  502  0.00000000000E+00  0.00000000000E+00  0.24360615512E+03  0.24360615512E+03  0.00000000000E+00 0. -1.
         21   -1    0    0  501  503 -0.00000000000E+00 -0.00000000000E+00 -0.16290727054E+03  0.16290727054E+03  0.00000000000E+00 0. -1.
          6    1    1    2  501    0  0.59655600187E+02 -0.77858953907E+02  0.52222163269E+02  0.20561362230E+03  0.17300000000E+03 0. -1.
         -6    1    1    2    0  502 -0.59655600187E+02  0.77858953907E+02  0.28476721313E+02  0.20089980337E+03  0.17300000000E+03 0. -1.
<mgrwt>
<rscale>  2 0.19887133E+03</rscale>
<asrwt>0</asrwt>
<pdfrwt beam="1">  1       21 0.37477870E-01 0.19887133E+03</pdfrwt>
<pdfrwt beam="2">  1       21 0.25062657E-01 0.19887133E+03</pdfrwt>
<totfact> 0.10325137E+05</totfact>
</mgrwt>
</event>
<event>
 4    1  0.4349106E+000  0.2095248E+03  0.7546771E-02  0.1141943E+00
         21   -1    0    0  503  502  0.00000000000E+00  0.00000000000E+00  0.29086275044E+03  0.29086275044E+03  0.00000000000E+00 0. -1.
         21   -1    0    0  501  503 -0.00000000000E+00 -0.00000000000E+00 -0.15611937945E+03  0.15611937945E+03  0.00000000000E+00 0. -1.
          6    1    1    2  501    0  0.91524122177E+02 -0.74799639529E+02  0.10810817006E+03  0.23577113362E+03  0.17300000000E+03 0. -1.
         -6    1    1    2    0  502 -0.91524122177E+02  0.74799639529E+02  0.26635200930E+02  0.21121099626E+03  0.17300000000E+03 0. -1.
<mgrwt>
<rscale>  2 0.20952482E+03</rscale>
<asrwt>0</asrwt>
<pdfrwt beam="1">  1       21 0.44748116E-01 0.20952482E+03</pdfrwt>
<pdfrwt beam="2">  1       21 0.24018366E-01 0.20952482E+03</pdfrwt>
<totfact> 0.77797590E+04</totfact>
</mgrwt>
</event>
<event>
 4    1  0.4349106E+000  0.2075649E+03  0.7546771E-02  0.1143509E+00
         21   -1    0    0  503  502  0.00000000000E+00  0.00000000000E+00  0.52011028031E+02  0.52011028031E+02  0.00000000000E+00 0.  1.
         21   -1    0    0  501  503 -0.00000000000E+00 -0.00000000000E+00 -0.86992356361E+03  0.86992356361E+03  0.00000000000E+00 0.  1.
          6    1    1    2  501    0  0.68099957840E+02 -0.92285437105E+02 -0.50973088083E+03  0.55037149003E+03  0.17300000000E+03 0.  1.
         -6    1    1    2    0  502 -0.68099957840E+02  0.92285437105E+02 -0.30818165475E+03  0.37156310162E+03  0.17300000000E+03 0.  1.
<mgrwt>
<rscale>  2 0.20756494E+03</rscale>
<asrwt>0</asrwt>
<pdfrwt beam="1">  1       21 0.80016971E-02 0.20756494E+03</pdfrwt>
<pdfrwt beam="2">  1       21 0.13383439E+00 0.20756494E+03</pdfrwt>
<totfact> 0.47781504E+04</totfact>
</mgrwt>
</event>
<event>
 4    1  0.4349106E+000  0.2246697E+03  0.7546771E-02  0.1130449E+00
         21   -1    0    0  503  502  0.00000000000E+00  0.00000000000E+00  0.13003956817E+03  0.13003956817E+03  0.00000000000E+00 0.  1.
         21   -1    0    0  501  503 -0.00000000000E+00 -0.00000000000E+00 -0.41894086264E+03  0.41894086264E+03  0.00000000000E+00 0.  1.
          6    1    1    2  501    0 -0.97134087813E+02 -0.10541559985E+03 -0.21885074210E+03  0.31364331178E+03  0.17300000000E+03 0.  1.
         -6    1    1    2    0  502  0.97134087813E+02  0.10541559985E+03 -0.70050552371E+02  0.23533711903E+03  0.17300000000E+03 0.  1.
<mgrwt>
<rscale>  2 0.22466971E+03</rscale>
<asrwt>0</asrwt>
<pdfrwt beam="1">  1       21 0.20006088E-01 0.22466971E+03</pdfrwt>
<pdfrwt beam="2">  1       21 0.64452440E-01 0.22466971E+03</pdfrwt>
<totfact> 0.50444915E+04</totfact>
</mgrwt>
</event>
<event>
 4    1  0.4349106E+000  0.1924882E+03  0.7546771E-02  0.1156236E+00
         21   -1    0    0  503  502  0.00000000000E+00  0.00000000000E+00  0.29089959433E+03  0.29089959433E+03  0.00000000000E+00 0.  1.
         21   -1    0    0  501  503 -0.00000000000E+00 -0.00000000000E+00 -0.27248105699E+03  0.27248105699E+03  0.00000000000E+00 0.  1.
          6    1    1    2  501    0  0.57590404103E+02  0.61693167380E+02 -0.19635846684E+03  0.27496972387E+03  0.17300000000E+03 0.  1.
         -6    1    1    2    0  502 -0.57590404103E+02 -0.61693167380E+02  0.21477700418E+03  0.28841092745E+03  0.17300000000E+03 0.  1.
<mgrwt>
<rscale>  2 0.19248819E+03</rscale>
<asrwt>0</asrwt>
<pdfrwt beam="1">  1       21 0.44753784E-01 0.19248819E+03</pdfrwt>
<pdfrwt beam="2">  1       21 0.41920162E-01 0.19248819E+03</pdfrwt>
<totfact> 0.26253450E+04</totfact>
</mgrwt>
</event>
<event>
 4    1  0.4349106E+000  0.1922528E+03  0.7546771E-02  0.1156445E+00
         21   -1    0    0  501  502  0.00000000000E+00  0.00000000000E+00  0.36584001627E+03  0.36584001627E+03  0.00000000000E+00 0. -1.
         21   -1    0    0  502  503 -0.00000000000E+00 -0.00000000000E+00 -0.10122502360E+03  0.10122502360E+03  0.00000000000E+00 0. -1.
          6    1    1    2  501    0  0.83780210991E+02 -0.36053059338E+01  0.14253609913E+03  0.23932751940E+03  0.17300000000E+03 0. -1.
         -6    1    1    2    0  503 -0.83780210991E+02  0.36053059338E+01  0.12207889353E+03  0.22773752047E+03  0.17300000000E+03 0. -1.
<mgrwt>
<rscale>  2 0.19225276E+03</rscale>
<asrwt>0</asrwt>
<pdfrwt beam="1">  1       21 0.56283079E-01 0.19225276E+03</pdfrwt>
<pdfrwt beam="2">  1       21 0.15573081E-01 0.19225276E+03</pdfrwt>
<totfact> 0.10884462E+05</totfact>
</mgrwt>
</event>
<event>
 4    1  0.4349106E+000  0.2163328E+03  0.7546771E-02  0.1136647E+00
         21   -1    0    0  501  502  0.00000000000E+00  0.00000000000E+00  0.83795955092E+03  0.83795955092E+03  0.00000000000E+00 0.  1.
         21   -1    0    0  502  503 -0.00000000000E+00 -0.00000000000E+00 -0.89275917076E+02  0.89275917076E+02  0.00000000000E+00 0.  1.
          6    1    1    2  501    0  0.11441703567E+03 -0.61478777367E+02  0.65802634651E+03  0.69267493878E+03  0.17300000000E+03 0.  1.
         -6    1    1    2    0  503 -0.11441703567E+03  0.61478777367E+02  0.90657287340E+02  0.23456052922E+03  0.17300000000E+03 0.  1.
<mgrwt>
<rscale>  2 0.21633284E+03</rscale>
<asrwt>0</asrwt>
<pdfrwt beam="1">  1       21 0.12891685E+00 0.21633284E+03</pdfrwt>
<pdfrwt beam="2">  1       21 0.13734757E-01 0.21633284E+03</pdfrwt>
<totfact> 0.20018842E+04</totfact>
</mgrwt>
</event>
<event>
 4    1  0.4349106E+000  0.2139678E+03  0.7546771E-02  0.1138462E+00
         21   -1    0    0  503  502  0.00000000000E+00  0.00000000000E+00  0.46303351099E+03  0.46303351099E+03  0.00000000000E+00 0.  1.
         21   -1    0    0  501  503 -0.00000000000E+00 -0.00000000000E+00 -0.11297089773E+03  0.11297089773E+03  0.00000000000E+00 0.  1.
          6    1    1    2  501    0  0.78016727911E+02 -0.98826071967E+02  0.73297160204E+02  0.22617399503E+03  0.17300000000E+03 0.  1.
         -6    1    1    2    0  502 -0.78016727911E+02  0.98826071967E+02  0.27676545306E+03  0.34983041369E+03  0.17300000000E+03 0.  1.
<mgrwt>
<rscale>  2 0.21396776E+03</rscale>
<asrwt>0</asrwt>
<pdfrwt beam="1">  1       21 0.71235924E-01 0.21396776E+03</pdfrwt>
<pdfrwt beam="2">  1       21 0.17380138E-01 0.21396776E+03</pdfrwt>
<totfact> 0.52850196E+04</totfact>
</mgrwt>
</event>
<event>
 4    1  0.4349106E+000  0.3251271E+03  0.7546771E-02  0.1073314E+00
         21   -1    0    0  503  502  0.00000000000E+00  0.00000000000E+00  0.48901037361E+03  0.48901037361E+03  0.00000000000E+00 0. -1.
         21   -1    0    0  501  503 -0.00000000000E+00 -0.00000000000E+00 -0.62139393642E+03  0.62139393642E+03  0.00000000000E+00 0. -1.
          6    1    1    2  501    0 -0.38560414065E+02  0.27256511738E+03 -0.51454167604E+03  0.60865489822E+03  0.17300000000E+03 0. -1.
         -6    1    1    2    0  502  0.38560414065E+02 -0.27256511738E+03  0.38215811323E+03  0.50174941181E+03  0.17300000000E+03 0. -1.
<mgrwt>
<rscale>  2 0.32512713E+03</rscale>
<asrwt>0</asrwt>
<pdfrwt beam="1">  1       21 0.75232366E-01 0.32512713E+03</pdfrwt>
<pdfrwt beam="2">  1       21 0.95599066E-01 0.32512713E+03</pdfrwt>
<totfact> 0.13063930E+03</totfact>
</mgrwt>
</event>
<event>
 4    1  0.4349106E+000  0.2187438E+03  0.7546771E-02  0.1134823E+00
         21   -1    0    0  501  502  0.00000000000E+00  0.00000000000E+00  0.45216089614E+02  0.45216089614E+02  0.00000000000E+00 0.  1.
         21   -1    0    0  502  503 -0.00000000000E+00 -0.00000000000E+00 -0.11602544683E+04  0.11602544683E+04  0.00000000000E+00 0.  1.
          6    1    1    2  501    0 -0.40429320297E+02 -0.12761390517E+03 -0.37878369408E+03  0.43740819109E+03  0.17300000000E+03 0.  1.
         -6    1    1    2    0  503  0.40429320297E+02  0.12761390517E+03 -0.73625468464E+03  0.76806236686E+03  0.17300000000E+03 0.  1.
<mgrwt>
<rscale>  2 0.21874377E+03</rscale>
<asrwt>0</asrwt>
<pdfrwt beam="1">  1       21 0.69563230E-02 0.21874377E+03</pdfrwt>
<pdfrwt beam="2">  1       21 0.17850065E+00 0.21874377E+03</pdfrwt>
<totfact> 0.28000067E+04</totfact>
</mgrwt>
</event>
<event>
 4    1  0.4349106E+000  0.2144571E+03  0.7546771E-02  0.1138084E+00
         21   -1    0    0  501  502  0.00000000000E+00  0.00000000000E+00  0.11779224290E+04  0.11779224290E+04  0.00000000000E+00 0.  1.
         21   -1    0    0  502  503 -0.00000000000E+00 -0.00000000000E+00 -0.26948616944E+03  0.26948616944E+03  0.00000000000E+00 0. -1.
          6    1    1    2  501    0  0.12142518407E+03  0.36315022078E+02  0.11234445026E+04  0.11437304781E+04  0.17300000000E+03 0.  1.
         -6    1    1    2    0  503 -0.12142518407E+03 -0.36315022078E+02 -0.21500824307E+03  0.30367812029E+03  0.17300000000E+03 0. -1.
<mgrwt>
<rscale>  2 0.21445712E+03</rscale>
<asrwt>0</asrwt>
<pdfrwt beam="1">  1       21 0.18121883E+00 0.21445712E+03</pdfrwt>
<pdfrwt beam="2">  1       21 0.41459411E-01 0.21445712E+03</pdfrwt>
<totfact> 0.97726013E+02</totfact>
</mgrwt>
</event>
<event>
 4    1  0.4349106E+000  0.1766307E+03  0.7546771E-02  0.1171104E+00
         21   -1    0    0  503  502  0.00000000000E+00  0.00000000000E+00  0.34560000839E+03  0.34560000839E+03  0.00000000000E+00 0.  1.
         21   -1    0    0  501  503 -0.00000000000E+00 -0.00000000000E+00 -0.19406275156E+03  0.19406275156E+03  0.00000000000E+00 0.  1.
          6    1    1    2  501    0 -0.50899029024E+01 -0.35263154559E+02 -0.12156373160E+03  0.21442047016E+03  0.17300000000E+03 0.  1.
         -6    1    1    2    0  502  0.50899029024E+01  0.35263154559E+02  0.27310098843E+03  0.32524228978E+03  0.17300000000E+03 0.  1.
<mgrwt>
<rscale>  2 0.17663068E+03</rscale>
<asrwt>0</asrwt>
<pdfrwt beam="1">  1       21 0.53169232E-01 0.17663068E+03</pdfrwt>
<pdfrwt beam="2">  1       21 0.29855808E-01 0.17663068E+03</pdfrwt>
<totfact> 0.36337272E+04</totfact>
</mgrwt>
</event>
<event>
 4    1  0.4349106E+000  0.3057496E+03  0.7546771E-02  0.1082401E+00
         21   -1    0    0  501  502  0.00000000000E+00  0.00000000000E+00  0.12162655206E+03  0.12162655206E+03  0.00000000000E+00 0. -1.
         21   -1    0    0  502  503 -0.00000000000E+00 -0.00000000000E+00 -0.11836257796E+04  0.11836257796E+04  0.00000000000E+00 0. -1.
          6    1    1    2  501    0 -0.22627792067E+03  0.11114008207E+03 -0.14455075721E+03  0.33819777740E+03  0.17300000000E+03 0. -1.
         -6    1    1    2    0  503  0.22627792067E+03 -0.11114008207E+03 -0.91744847031E+03  0.96705455425E+03  0.17300000000E+03 0. -1.
<mgrwt>
<rscale>  2 0.30574960E+03</rscale>
<asrwt>0</asrwt>
<pdfrwt beam="1">  1       21 0.18711777E-01 0.30574960E+03</pdfrwt>
<pdfrwt beam="2">  1       21 0.18209628E+00 0.30574960E+03</pdfrwt>
<totfact> 0.42373830E+03</totfact>
</mgrwt>
</event>
<event>
 4    1  0.4349106E+000  0.1925904E+03  0.7546771E-02  0.1156145E+00
         21   -1    0    0  501  502  0.00000000000E+00  0.00000000000E+00  0.10884235054E+03  0.10884235054E+03  0.00000000000E+00 0. -1.
         21   -1    0    0  502  503 -0.00000000000E+00 -0.00000000000E+00 -0.57322368963E+03  0.57322368963E+03  0.00000000000E+00 0.  1.
          6    1    1    2  501    0  0.83315634158E+02  0.14851922327E+02 -0.15023010828E+02  0.19317547812E+03  0.17300000000E+03 0. -1.
         -6    1    1    2    0  503 -0.83315634158E+02 -0.14851922327E+02 -0.44935832826E+03  0.48889056206E+03  0.17300000000E+03 0.  1.
<mgrwt>
<rscale>  2 0.19259043E+03</rscale>
<asrwt>0</asrwt>
<pdfrwt beam="1">  1       21 0.16744977E-01 0.19259043E+03</pdfrwt>
<pdfrwt beam="2">  1       21 0.88188262E-01 0.19259043E+03</pdfrwt>
<totfact> 0.35322459E+04</totfact>
</mgrwt>
</event>
<event>
 4    1  0.4349106E+000  0.1839159E+03  0.7546771E-02  0.1164066E+00
         21   -1    0    0  501  502  0.00000000000E+00  0.00000000000E+00  0.77220145201E+02  0.77220145201E+02  0.00000000000E+00 0.  1.
         21   -1    0    0  502  503 -0.00000000000E+00 -0.00000000000E+00 -0.11523914385E+04  0.11523914385E+04  0.00000000000E+00 0. -1.
          6    1    1    2  501    0 -0.53843238098E+02 -0.31574609416E+02 -0.53529521806E+02  0.19154753967E+03  0.17300000000E+03 0.  1.
         -6    1    1    2    0  503  0.53843238098E+02  0.31574609416E+02 -0.10216417714E+04  0.10380640440E+04  0.17300000000E+03 0. -1.
<mgrwt>
<rscale>  2 0.18391588E+03</rscale>
<asrwt>0</asrwt>
<pdfrwt beam="1">  1       21 0.11880021E-01 0.18391588E+03</pdfrwt>
<pdfrwt beam="2">  1       21 0.17729100E+00 0.18391588E+03</pdfrwt>
<totfact> 0.11423767E+04</totfact>
</mgrwt>
</event>
<event>
 4    1  0.4349106E+000  0.2613267E+03  0.7546771E-02  0.1106349E+00
         21   -1    0    0  503  502  0.00000000000E+00  0.00000000000E+00  0.16493802147E+03  0.16493802147E+03  0.00000000000E+00 0. -1.
         21   -1    0    0  501  503 -0.00000000000E+00 -0.00000000000E+00 -0.42693689882E+03  0.42693689882E+03  0.00000000000E+00 0. -1.
          6    1    1    2  501    0  0.11325901480E+03 -0.15979694973E+03 -0.18242583488E+03  0.31870182743E+03  0.17300000000E+03 0. -1.
         -6    1    1    2    0  502 -0.11325901480E+03  0.15979694973E+03 -0.79573042458E+02  0.27317309286E+03  0.17300000000E+03 0. -1.
<mgrwt>
<rscale>  2 0.26132675E+03</rscale>
<asrwt>0</asrwt>
<pdfrwt beam="1">  1       21 0.25375081E-01 0.26132675E+03</pdfrwt>
<pdfrwt beam="2">  1       21 0.65682598E-01 0.26132675E+03</pdfrwt>
<totfact> 0.30324616E+04</totfact>
</mgrwt>
</event>
<event>
 4    1  0.4349106E+000  0.2111338E+03  0.7546771E-02  0.1140671E+00
         21   -1    0    0  501  502  0.00000000000E+00  0.00000000000E+00  0.98986728151E+02  0.98986728151E+02  0.00000000000E+00 0.  1.
         21   -1    0    0  502  503 -0.00000000000E+00 -0.00000000000E+00 -0.45073524538E+03  0.45073524538E+03  0.00000000000E+00 0.  1.
          6    1    1    2  501    0  0.93449381458E+02  0.76913662514E+02 -0.18403273190E+03  0.28008131817E+03  0.17300000000E+03 0.  1.
         -6    1    1    2    0  503 -0.93449381458E+02 -0.76913662514E+02 -0.16771578533E+03  0.26964065536E+03  0.17300000000E+03 0.  1.
<mgrwt>
<rscale>  2 0.21113384E+03</rscale>
<asrwt>0</asrwt>
<pdfrwt beam="1">  1       21 0.15228728E-01 0.21113384E+03</pdfrwt>
<pdfrwt beam="2">  1       21 0.69343883E-01 0.21113384E+03</pdfrwt>
<totfact> 0.71597954E+04</totfact>
</mgrwt>
</event>
<event>
 4    1  0.4349106E+000  0.2924390E+03  0.7546771E-02  0.1089083E+00
         21   -1    0    0  503  502  0.00000000000E+00  0.00000000000E+00  0.41857652197E+03  0.41857652197E+03  0.00000000000E+00 0.  1.
         21   -1    0    0  501  503 -0.00000000000E+00 -0.00000000000E+00 -0.40880621762E+03  0.40880621762E+03  0.00000000000E+00 0. -1.
          6    1    1    2  501    0  0.14048042453E+03  0.18935898604E+03 -0.28770337645E+03  0.41023628324E+03  0.17300000000E+03 0. -1.
         -6    1    1    2    0  502 -0.14048042453E+03 -0.18935898604E+03  0.29747368080E+03  0.41714645634E+03  0.17300000000E+03 0. -1.
<mgrwt>
<rscale>  2 0.29243901E+03</rscale>
<asrwt>0</asrwt>
<pdfrwt beam="1">  1       21 0.64396388E-01 0.29243901E+03</pdfrwt>
<pdfrwt beam="2">  1       21 0.62893264E-01 0.29243901E+03</pdfrwt>
<totfact> 0.48824008E+03</totfact>
</mgrwt>
</event>
<event>
 4    1  0.4349106E+000  0.1833471E+03  0.7546771E-02  0.1164602E+00
         21   -1    0    0  503  502  0.00000000000E+00  0.00000000000E+00  0.28815128894E+03  0.28815128894E+03  0.00000000000E+00 0. -1.
         21   -1    0    0  501  503 -0.00000000000E+00 -0.00000000000E+00 -0.12581671473E+03  0.12581671473E+03  0.00000000000E+00 0. -1.
          6    1    1    2  501    0  0.60353014244E+02 -0.66850478461E+01  0.25333038668E+02  0.18508900303E+03  0.17300000000E+03 0. -1.
         -6    1    1    2    0  502 -0.60353014244E+02  0.66850478461E+01  0.13700153555E+03  0.22887900064E+03  0.17300000000E+03 0. -1.
<mgrwt>
<rscale>  2 0.18334715E+03</rscale>
<asrwt>0</asrwt>
<pdfrwt beam="1">  1       21 0.44330968E-01 0.18334715E+03</pdfrwt>
<pdfrwt beam="2">  1       21 0.19356418E-01 0.18334715E+03</pdfrwt>
<totfact> 0.12028369E+05</totfact>
</mgrwt>
</event>
<event>
 4    1  0.4349106E+000  0.2480975E+03  0.7546771E-02  0.1114513E+00
         21   -1    0    0  503  502  0.00000000000E+00  0.00000000000E+00  0.17366596313E+03  0.17366596313E+03  0.00000000000E+00 0. -1.
         21   -1    0    0  501  503 -0.00000000000E+00 -0.00000000000E+00 -0.39755823013E+03  0.39755823013E+03  0.00000000000E+00 0. -1.
          6    1    1    2  501    0 -0.93612820478E+02  0.15119528706E+03 -0.20601773944E+03  0.32248361811E+03  0.17300000000E+03 0. -1.
         -6    1    1    2    0  502  0.93612820478E+02 -0.15119528706E+03 -0.17874527559E+02  0.24874057514E+03  0.17300000000E+03 0. -1.
<mgrwt>
<rscale>  2 0.24809751E+03</rscale>
<asrwt>0</asrwt>
<pdfrwt beam="1">  1       21 0.26717841E-01 0.24809751E+03</pdfrwt>
<pdfrwt beam="2">  1       21 0.61162804E-01 0.24809751E+03</pdfrwt>
<totfact> 0.32258269E+04</totfact>
</mgrwt>
</event>
<event>
 4    1  0.4349106E+000  0.2235512E+03  0.7546771E-02  0.1131263E+00
         21   -1    0    0  501  502  0.00000000000E+00  0.00000000000E+00  0.28368930458E+03  0.28368930458E+03  0.00000000000E+00 0. -1.
         21   -1    0    0  502  503 -0.00000000000E+00 -0.00000000000E+00 -0.17797460923E+03  0.17797460923E+03  0.00000000000E+00 0.  1.
          6    1    1    2  501    0  0.12280828481E+03  0.70457546631E+02  0.76155733094E+02  0.23616696716E+03  0.17300000000E+03 0.  1.
         -6    1    1    2    0  503 -0.12280828481E+03 -0.70457546631E+02  0.29558962258E+02  0.22549694664E+03  0.17300000000E+03 0.  1.
<mgrwt>
<rscale>  2 0.22355120E+03</rscale>
<asrwt>0</asrwt>
<pdfrwt beam="1">  1       21 0.43644508E-01 0.22355120E+03</pdfrwt>
<pdfrwt beam="2">  1       21 0.27380709E-01 0.22355120E+03</pdfrwt>
<totfact> 0.63309680E+04</totfact>
</mgrwt>
</event>
<event>
 4    1  0.4349106E+000  0.2074608E+03  0.7546771E-02  0.1143593E+00
         21   -1    0    0  501  502  0.00000000000E+00  0.00000000000E+00  0.27091189502E+03  0.27091189502E+03  0.00000000000E+00 0. -1.
         21   -1    0    0  502  503 -0.00000000000E+00 -0.00000000000E+00 -0.20255448593E+03  0.20255448593E+03  0.00000000000E+00 0. -1.
          6    1    1    2  501    0 -0.11247600162E+03  0.21450283757E+02  0.14411682160E+03  0.25260566874E+03  0.17300000000E+03 0. -1.
         -6    1    1    2    0  503  0.11247600162E+03 -0.21450283757E+02 -0.75759412508E+02  0.22086071221E+03  0.17300000000E+03 0. -1.
<mgrwt>
<rscale>  2 0.20746076E+03</rscale>
<asrwt>0</asrwt>
<pdfrwt beam="1">  1       21 0.41678753E-01 0.20746076E+03</pdfrwt>
<pdfrwt beam="2">  1       21 0.31162228E-01 0.20746076E+03</pdfrwt>
<totfact> 0.54447765E+04</totfact>
</mgrwt>
</event>
<event>
 4    1  0.4349106E+000  0.2614233E+03  0.7546771E-02  0.1106291E+00
         21   -1    0    0  503  502  0.00000000000E+00  0.00000000000E+00  0.10273410752E+04  0.10273410752E+04  0.00000000000E+00 0.  1.
         21   -1    0    0  501  503 -0.00000000000E+00 -0.00000000000E+00 -0.71765402280E+02  0.71765402280E+02  0.00000000000E+00 0. -1.
          6    1    1    2  501    0 -0.13458287183E+03 -0.14248008707E+03  0.62631459767E+03  0.67868409430E+03  0.17300000000E+03 0.  1.
         -6    1    1    2    0  502  0.13458287183E+03  0.14248008707E+03  0.32926107524E+03  0.42042238317E+03  0.17300000000E+03 0. -1.
<mgrwt>
<rscale>  2 0.26142327E+03</rscale>
<asrwt>0</asrwt>
<pdfrwt beam="1">  1       21 0.15805246E+00 0.26142327E+03</pdfrwt>
<pdfrwt beam="2">  1       21 0.11040832E-01 0.26142327E+03</pdfrwt>
<totfact> 0.16967542E+04</totfact>
</mgrwt>
</event>
<event>
 4    1  0.4349106E+000  0.2880874E+03  0.7546771E-02  0.1091352E+00
         21   -1    0    0  501  502  0.00000000000E+00  0.00000000000E+00  0.42917803350E+02  0.42917803350E+02  0.00000000000E+00 0. -1.
         21   -1    0    0  502  503 -0.00000000000E+00 -0.00000000000E+00 -0.21119337587E+04  0.21119337587E+04  0.00000000000E+00 0.  1.
          6    1    1    2  501    0 -0.44931517824E+02  0.22593469415E+03 -0.72159486387E+03  0.77697713922E+03  0.17300000000E+03 0. -1.
         -6    1    1    2    0  503  0.44931517824E+02 -0.22593469415E+03 -0.13474210915E+04  0.13778744229E+04  0.17300000000E+03 0.  1.
<mgrwt>
<rscale>  2 0.28808736E+03</rscale>
<asrwt>0</asrwt>
<pdfrwt beam="1">  1       21 0.66027393E-02 0.28808736E+03</pdfrwt>
<pdfrwt beam="2">  1       21 0.32491287E+00 0.28808736E+03</pdfrwt>
<totfact> 0.37221976E+03</totfact>
</mgrwt>
</event>
<event>
 4    1  0.4349106E+000  0.2641838E+03  0.7546771E-02  0.1104655E+00
         21   -1    0    0  503  502  0.00000000000E+00  0.00000000000E+00  0.28769957451E+03  0.28769957451E+03  0.00000000000E+00 0. -1.
         21   -1    0    0  501  503 -0.00000000000E+00 -0.00000000000E+00 -0.24909730705E+03  0.24909730705E+03  0.00000000000E+00 0. -1.
          6    1    1    2  501    0  0.15678028272E+03  0.12362859281E+03  0.62681254850E+02  0.27151800257E+03  0.17300000000E+03 0. -1.
         -6    1    1    2    0  502 -0.15678028272E+03 -0.12362859281E+03 -0.24078987393E+02  0.26527887900E+03  0.17300000000E+03 0. -1.
<mgrwt>
<rscale>  2 0.26418381E+03</rscale>
<asrwt>0</asrwt>
<pdfrwt beam="1">  1       21 0.44261473E-01 0.26418381E+03</pdfrwt>
<pdfrwt beam="2">  1       21 0.38322663E-01 0.26418381E+03</pdfrwt>
<totfact> 0.31099957E+04</totfact>
</mgrwt>
</event>
<event>
 4    1  0.4349106E+000  0.2217063E+03  0.7546771E-02  0.1132617E+00
         21   -1    0    0  501  502  0.00000000000E+00  0.00000000000E+00  0.78129450623E+02  0.78129450623E+02  0.00000000000E+00 0.  1.
         21   -1    0    0  502  503 -0.00000000000E+00 -0.00000000000E+00 -0.63072647166E+03  0.63072647166E+03  0.00000000000E+00 0. -1.
          6    1    1    2  501    0  0.13864372191E+03  0.16103005472E+01 -0.25847368232E+03  0.34053240543E+03  0.17300000000E+03 0. -1.
         -6    1    1    2    0  503 -0.13864372191E+03 -0.16103005472E+01 -0.29412333871E+03  0.36832351686E+03  0.17300000000E+03 0. -1.
<mgrwt>
<rscale>  2 0.22170628E+03</rscale>
<asrwt>0</asrwt>
<pdfrwt beam="1">  1       21 0.12019915E-01 0.22170628E+03</pdfrwt>
<pdfrwt beam="2">  1       21 0.97034846E-01 0.22170628E+03</pdfrwt>
<totfact> 0.50836403E+04</totfact>
</mgrwt>
</event>
<event>
 4    1  0.4349106E+000  0.2638898E+03  0.7546771E-02  0.1104828E+00
         21   -1    0    0  503  502  0.00000000000E+00  0.00000000000E+00  0.64601985497E+02  0.64601985497E+02  0.00000000000E+00 0. -1.
         21   -1    0    0  501  503 -0.00000000000E+00 -0.00000000000E+00 -0.10874482121E+04  0.10874482121E+04  0.00000000000E+00 0. -1.
          6    1    1    2  501    0 -0.19504137434E+03  0.40837241831E+02 -0.56525255925E+03  0.62381750037E+03  0.17300000000E+03 0. -1.
         -6    1    1    2    0  502  0.19504137434E+03 -0.40837241831E+02 -0.45759366740E+03  0.52823269727E+03  0.17300000000E+03 0. -1.
<mgrwt>
<rscale>  2 0.26388978E+03</rscale>
<asrwt>0</asrwt>
<pdfrwt beam="1">  1       21 0.99387674E-02 0.26388978E+03</pdfrwt>
<pdfrwt beam="2">  1       21 0.16729972E+00 0.26388978E+03</pdfrwt>
<totfact> 0.17487818E+04</totfact>
</mgrwt>
</event>
<event>
 4    1  0.4349106E+000  0.1794344E+03  0.7546771E-02  0.1168352E+00
         21   -1    0    0  501  502  0.00000000000E+00  0.00000000000E+00  0.14247887541E+03  0.14247887541E+03  0.00000000000E+00 0.  1.
         21   -1    0    0  502  503 -0.00000000000E+00 -0.00000000000E+00 -0.28947122479E+03  0.28947122479E+03  0.00000000000E+00 0.  1.
          6    1    1    2  501    0  0.61914554902E+01 -0.47216181571E+02  0.27655696960E+02  0.18155313134E+03  0.17300000000E+03 0.  1.
         -6    1    1    2    0  503 -0.61914554902E+01  0.47216181571E+02 -0.17464804634E+03  0.25039696886E+03  0.17300000000E+03 0.  1.
<mgrwt>
<rscale>  2 0.17943439E+03</rscale>
<asrwt>0</asrwt>
<pdfrwt beam="1">  1       21 0.21919827E-01 0.17943439E+03</pdfrwt>
<pdfrwt beam="2">  1       21 0.44534034E-01 0.17943439E+03</pdfrwt>
<totfact> 0.94570911E+04</totfact>
</mgrwt>
</event>
<event>
 4    1  0.4349106E+000  0.2131011E+03  0.7546771E-02  0.1139134E+00
         21   -1    0    0  501  502  0.00000000000E+00  0.00000000000E+00  0.19626904988E+03  0.19626904988E+03  0.00000000000E+00 0.  1.
         21   -1    0    0  502  503 -0.00000000000E+00 -0.00000000000E+00 -0.32453645416E+03  0.32453645416E+03  0.00000000000E+00 0. -1.
          6    1    1    2  501    0 -0.12438769231E+03  0.32831986194E+01  0.75383604738E+02  0.22604151224E+03  0.17300000000E+03 0.  1.
         -6    1    1    2    0  503  0.12438769231E+03 -0.32831986194E+01 -0.20365100901E+03  0.29476399181E+03  0.17300000000E+03 0. -1.
<mgrwt>
<rscale>  2 0.21310110E+03</rscale>
<asrwt>0</asrwt>
<pdfrwt beam="1">  1       21 0.30195239E-01 0.21310110E+03</pdfrwt>
<pdfrwt beam="2">  1       21 0.49928685E-01 0.21310110E+03</pdfrwt>
<totfact> 0.39798090E+04</totfact>
</mgrwt>
</event>
<event>
 4    1  0.4349106E+000  0.1906166E+03  0.7546771E-02  0.1157906E+00
         21   -1    0    0  501  502  0.00000000000E+00  0.00000000000E+00  0.32111801336E+03  0.32111801336E+03  0.00000000000E+00 0. -1.
         21   -1    0    0  502  503 -0.00000000000E+00 -0.00000000000E+00 -0.15672435681E+03  0.15672435681E+03  0.00000000000E+00 0. -1.
          6    1    1    2  501    0  0.42013576788E+02 -0.68121483476E+02  0.20817613253E+03  0.28226225270E+03  0.17300000000E+03 0. -1.
         -6    1    1    2    0  503 -0.42013576788E+02  0.68121483476E+02 -0.43782475973E+02  0.19558011747E+03  0.17300000000E+03 0. -1.
<mgrwt>
<rscale>  2 0.19061657E+03</rscale>
<asrwt>0</asrwt>
<pdfrwt beam="1">  1       21 0.49402771E-01 0.19061657E+03</pdfrwt>
<pdfrwt beam="2">  1       21 0.24111440E-01 0.19061657E+03</pdfrwt>
<totfact> 0.63462294E+04</totfact>
</mgrwt>
</event>
<event>
 4    1  0.4349106E+000  0.1930182E+03  0.7546771E-02  0.1155767E+00
         21   -1    0    0  503  502  0.00000000000E+00  0.00000000000E+00  0.78979506976E+02  0.78979506976E+02  0.00000000000E+00 0.  1.
         21   -1    0    0  501  503 -0.00000000000E+00 -0.00000000000E+00 -0.47171936509E+03  0.47171936509E+03  0.00000000000E+00 0.  1.
          6    1    1    2  501    0  0.82847470353E+02  0.21525184011E+02 -0.19687629196E+03  0.27571055697E+03  0.17300000000E+03 0.  1.
         -6    1    1    2    0  502 -0.82847470353E+02 -0.21525184011E+02 -0.19586356616E+03  0.27498831509E+03  0.17300000000E+03 0.  1.
<mgrwt>
<rscale>  2 0.19301823E+03</rscale>
<asrwt>0</asrwt>
<pdfrwt beam="1">  1       21 0.12150693E-01 0.19301823E+03</pdfrwt>
<pdfrwt beam="2">  1       21 0.72572210E-01 0.19301823E+03</pdfrwt>
<totfact> 0.98165190E+04</totfact>
</mgrwt>
</event>
<event>
 4    1  0.4349106E+000  0.2411572E+03  0.7546771E-02  0.1119024E+00
         21   -1    0    0  501  502  0.00000000000E+00  0.00000000000E+00  0.46346802735E+02  0.46346802735E+02  0.00000000000E+00 0.  1.
         21   -1    0    0  502  503 -0.00000000000E+00 -0.00000000000E+00 -0.17206879001E+04  0.17206879001E+04  0.00000000000E+00 0.  1.
          6    1    1    2  501    0  0.20594429716E+01  0.16799869723E+03 -0.37744743049E+03  0.44790999806E+03  0.17300000000E+03 0.  1.
         -6    1    1    2    0  503 -0.20594429716E+01 -0.16799869723E+03 -0.12968936669E+04  0.13191247048E+04  0.17300000000E+03 0.  1.
<mgrwt>
<rscale>  2 0.24115722E+03</rscale>
<asrwt>0</asrwt>
<pdfrwt beam="1">  1       21 0.71302790E-02 0.24115722E+03</pdfrwt>
<pdfrwt beam="2">  1       21 0.26472115E+00 0.24115722E+03</pdfrwt>
<totfact> 0.76407370E+03</totfact>
</mgrwt>
</event>
<event>
 4    1  0.4349106E+000  0.2328200E+03  0.7546771E-02  0.1124671E+00
         21   -1    0    0  503  502  0.00000000000E+00  0.00000000000E+00  0.10758489980E+04  0.10758489980E+04  0.00000000000E+00 0.  1.
         21   -1    0    0  501  503 -0.00000000000E+00 -0.00000000000E+00 -0.53832452437E+02  0.53832452437E+02  0.00000000000E+00 0.  1.
          6    1    1    2  501    0  0.24640023951E+02  0.15384732353E+03  0.36803918287E+03  0.43549738216E+03  0.17300000000E+03 0.  1.
         -6    1    1    2    0  502 -0.24640023951E+02 -0.15384732353E+03  0.65397736268E+03  0.69418406827E+03  0.17300000000E+03 0.  1.
<mgrwt>
<rscale>  2 0.23281995E+03</rscale>
<asrwt>0</asrwt>
<pdfrwt beam="1">  1       21 0.16551521E+00 0.23281995E+03</pdfrwt>
<pdfrwt beam="2">  1       21 0.82819166E-02 0.23281995E+03</pdfrwt>
<totfact> 0.25286365E+04</totfact>
</mgrwt>
</event>
<event>
 4    1  0.4349106E+000  0.1730203E+03  0.7546771E-02  0.1174734E+00
         21   -1    0    0  501  502  0.00000000000E+00  0.00000000000E+00  0.18461942219E+03  0.18461942219E+03  0.00000000000E+00 0. -1.
         21   -1    0    0  502  503 -0.00000000000E+00 -0.00000000000E+00 -0.24792298356E+03  0.24792298356E+03  0.00000000000E+00 0. -1.
          6    1    1    2  501    0 -0.23253753201E+01 -0.12767340053E+01  0.95556559306E+02  0.19765397402E+03  0.17300000000E+03 0. -1.
         -6    1    1    2    0  503  0.23253753201E+01  0.12767340053E+01 -0.15886012067E+03  0.23488843173E+03  0.17300000000E+03 0. -1.
<mgrwt>
<rscale>  2 0.17302034E+03</rscale>
<asrwt>0</asrwt>
<pdfrwt beam="1">  1       21 0.28402988E-01 0.17302034E+03</pdfrwt>
<pdfrwt beam="2">  1       21 0.38141997E-01 0.17302034E+03</pdfrwt>
<totfact> 0.79199302E+04</totfact>
</mgrwt>
</event>
<event>
 4    1  0.4349106E+000  0.2592133E+03  0.7546771E-02  0.1107617E+00
         21   -1    0    0  503  502  0.00000000000E+00  0.00000000000E+00  0.50983290981E+02  0.50983290981E+02  0.00000000000E+00 0. -1.
         21   -1    0    0  501  503 -0.00000000000E+00 -0.00000000000E+00 -0.14206749242E+04  0.14206749242E+04  0.00000000000E+00 0.  1.
          6    1    1    2  501    0 -0.12418017717E+03  0.14778977289E+03 -0.48694568814E+03  0.55164085832E+03  0.17300000000E+03 0.  1.
         -6    1    1    2    0  502  0.12418017717E+03 -0.14778977289E+03 -0.88274594512E+03  0.92001735690E+03  0.17300000000E+03 0.  1.
<mgrwt>
<rscale>  2 0.25921330E+03</rscale>
<asrwt>0</asrwt>
<pdfrwt beam="1">  1       21 0.78435833E-02 0.25921330E+03</pdfrwt>
<pdfrwt beam="2">  1       21 0.21856537E+00 0.25921330E+03</pdfrwt>
<totfact> 0.12125436E+04</totfact>
</mgrwt>
</event>
<event>
 4    1  0.4349106E+000  0.2109279E+03  0.7546771E-02  0.1140833E+00
         21   -1    0    0  503  502  0.00000000000E+00  0.00000000000E+00  0.65470545562E+03  0.65470545562E+03  0.00000000000E+00 0.  1.
         21   -1    0    0  501  503 -0.00000000000E+00 -0.00000000000E+00 -0.67385786800E+03  0.67385786800E+03  0.00000000000E+00 0.  1.
          6    1    1    2  501    0 -0.88412093723E+02  0.82127219073E+02 -0.63947326122E+03  0.67336218356E+03  0.17300000000E+03 0.  1.
         -6    1    1    2    0  502  0.88412093723E+02 -0.82127219073E+02  0.62032084884E+03  0.65520114006E+03  0.17300000000E+03 0.  1.
<mgrwt>
<rscale>  2 0.21092790E+03</rscale>
<asrwt>0</asrwt>
<pdfrwt beam="1">  1       21 0.10072392E+00 0.21092790E+03</pdfrwt>
<pdfrwt beam="2">  1       21 0.10367044E+00 0.21092790E+03</pdfrwt>
<totfact> 0.59627161E+02</totfact>
</mgrwt>
</event>
<event>
 4    1  0.4349106E+000  0.1860224E+03  0.7546771E-02  0.1162099E+00
         21   -1    0    0  501  502  0.00000000000E+00  0.00000000000E+00  0.36442333102E+03  0.36442333102E+03  0.00000000000E+00 0. -1.
         21   -1    0    0  502  503 -0.00000000000E+00 -0.00000000000E+00 -0.18110488769E+03  0.18110488769E+03  0.00000000000E+00 0. -1.
          6    1    1    2  501    0 -0.68317871193E+02  0.28265413241E+01  0.27978400580E+03  0.33598126549E+03  0.17300000000E+03 0. -1.
         -6    1    1    2    0  503  0.68317871193E+02 -0.28265413241E+01 -0.96465562465E+02  0.20954695322E+03  0.17300000000E+03 0. -1.
<mgrwt>
<rscale>  2 0.18602237E+03</rscale>
<asrwt>0</asrwt>
<pdfrwt beam="1">  1       21 0.56065128E-01 0.18602237E+03</pdfrwt>
<pdfrwt beam="2">  1       21 0.27862290E-01 0.18602237E+03</pdfrwt>
<totfact> 0.36963349E+04</totfact>
</mgrwt>
</event>
<event>
 4    1  0.4349106E+000  0.2928804E+03  0.7546771E-02  0.1088855E+00
         21   -1    0    0  503  502  0.00000000000E+00  0.00000000000E+00  0.67319743712E+03  0.67319743712E+03  0.00000000000E+00 0. -1.
         21   -1    0    0  501  503 -0.00000000000E+00 -0.00000000000E+00 -0.13997325930E+03  0.13997325930E+03  0.00000000000E+00 0. -1.
          6    1    1    2  501    0 -0.22118426883E+03 -0.83231268201E+02  0.14485207805E+03  0.32674309373E+03  0.17300000000E+03 0. -1.
         -6    1    1    2    0  502  0.22118426883E+03  0.83231268201E+02  0.38837209976E+03  0.48642760269E+03  0.17300000000E+03 0. -1.
<mgrwt>
<rscale>  2 0.29288039E+03</rscale>
<asrwt>0</asrwt>
<pdfrwt beam="1">  1       21 0.10356883E+00 0.29288039E+03</pdfrwt>
<pdfrwt beam="2">  1       21 0.21534348E-01 0.29288039E+03</pdfrwt>
<totfact> 0.14358431E+04</totfact>
</mgrwt>
</event>
<event>
 4    1  0.4349106E+000  0.2002257E+03  0.7546771E-02  0.1149549E+00
         21   -1    0    0  501  502  0.00000000000E+00  0.00000000000E+00  0.49153760727E+03  0.49153760727E+03  0.00000000000E+00 0.  1.
         21   -1    0    0  502  503 -0.00000000000E+00 -0.00000000000E+00 -0.19690030014E+03  0.19690030014E+03  0.00000000000E+00 0. -1.
          6    1    1    2  501    0  0.98858087147E+02 -0.19707748719E+02  0.41076985182E+03  0.45697066418E+03  0.17300000000E+03 0.  1.
         -6    1    1    2    0  503 -0.98858087147E+02  0.19707748719E+02 -0.11613254468E+03  0.23146724323E+03  0.17300000000E+03 0.  1.
<mgrwt>
<rscale>  2 0.20022566E+03</rscale>
<asrwt>0</asrwt>
<pdfrwt beam="1">  1       21 0.75621170E-01 0.20022566E+03</pdfrwt>
<pdfrwt beam="2">  1       21 0.30292354E-01 0.20022566E+03</pdfrwt>
<totfact> 0.16243352E+04</totfact>
</mgrwt>
</event>
<event>
 4    1  0.4349106E+000  0.1780194E+03  0.7546771E-02  0.1169734E+00
         21   -1    0    0  503  502  0.00000000000E+00  0.00000000000E+00  0.33103539779E+03  0.33103539779E+03  0.00000000000E+00 0. -1.
         21   -1    0    0  501  503 -0.00000000000E+00 -0.00000000000E+00 -0.15249599653E+03  0.15249599653E+03  0.00000000000E+00 0. -1.
          6    1    1    2  501    0 -0.13853912575E+02 -0.39622945134E+02  0.23677217576E+03  0.29622959320E+03  0.17300000000E+03 0. -1.
         -6    1    1    2    0  502  0.13853912575E+02  0.39622945134E+02 -0.58232774497E+02  0.18730180111E+03  0.17300000000E+03 0. -1.
<mgrwt>
<rscale>  2 0.17801941E+03</rscale>
<asrwt>0</asrwt>
<pdfrwt beam="1">  1       21 0.50928523E-01 0.17801941E+03</pdfrwt>
<pdfrwt beam="2">  1       21 0.23460923E-01 0.17801941E+03</pdfrwt>
<totfact> 0.63085411E+04</totfact>
</mgrwt>
</event>
<event>
 4    1  0.4349106E+000  0.1898817E+03  0.7546771E-02  0.1158568E+00
         21   -1    0    0  503  502  0.00000000000E+00  0.00000000000E+00  0.79773125359E+02  0.79773125359E+02  0.00000000000E+00 0.  1.
         21   -1    0    0  501  503 -0.00000000000E+00 -0.00000000000E+00 -0.50530904207E+03  0.50530904207E+03  0.00000000000E+00 0.  1.
          6    1    1    2  501    0 -0.30698812537E+02  0.71997469894E+02 -0.11772251973E+03  0.22341361734E+03  0.17300000000E+03 0.  1.
         -6    1    1    2    0  502  0.30698812537E+02 -0.71997469894E+02 -0.30781339698E+03  0.36166855009E+03  0.17300000000E+03 0.  1.
<mgrwt>
<rscale>  2 0.18988168E+03</rscale>
<asrwt>0</asrwt>
<pdfrwt beam="1">  1       21 0.12272789E-01 0.18988168E+03</pdfrwt>
<pdfrwt beam="2">  1       21 0.77739852E-01 0.18988168E+03</pdfrwt>
<totfact> 0.82794868E+04</totfact>
</mgrwt>
</event>
<event>
 4    1  0.4349106E+000  0.2684026E+03  0.7546771E-02  0.1102197E+00
         21   -1    0    0  501  502  0.00000000000E+00  0.00000000000E+00  0.16952864424E+04  0.16952864424E+04  0.00000000000E+00 0.  1.
         21   -1    0    0  502  503 -0.00000000000E+00 -0.00000000000E+00 -0.50899118073E+02  0.50899118073E+02  0.00000000000E+00 0. -1.
          6    1    1    2  501    0 -0.20400033242E+03 -0.22244166543E+02  0.46740435228E+03  0.53898679678E+03  0.17300000000E+03 0. -1.
         -6    1    1    2    0  503  0.20400033242E+03  0.22244166543E+02  0.11769829721E+04  0.12071987637E+04  0.17300000000E+03 0. -1.
<mgrwt>
<rscale>  2 0.26840257E+03</rscale>
<asrwt>0</asrwt>
<pdfrwt beam="1">  1       21 0.26081326E+00 0.26840257E+03</pdfrwt>
<pdfrwt beam="2">  1       21 0.78306349E-02 0.26840257E+03</pdfrwt>
<totfact> 0.66984551E+03</totfact>
</mgrwt>
</event>
<event>
 4    1  0.4349106E+000  0.1842327E+03  0.7546771E-02  0.1163768E+00
         21   -1    0    0  501  502  0.00000000000E+00  0.00000000000E+00  0.53127491320E+03  0.53127491320E+03  0.00000000000E+00 0.  1.
         21   -1    0    0  502  503 -0.00000000000E+00 -0.00000000000E+00 -0.74860187252E+02  0.74860187252E+02  0.00000000000E+00 0.  1.
          6    1    1    2  501    0 -0.61538765416E+02 -0.15022447749E+02  0.34423873226E+03  0.39043821326E+03  0.17300000000E+03 0.  1.
         -6    1    1    2    0  503  0.61538765416E+02  0.15022447749E+02  0.11217599369E+03  0.21569688720E+03  0.17300000000E+03 0.  1.
<mgrwt>
<rscale>  2 0.18423272E+03</rscale>
<asrwt>0</asrwt>
<pdfrwt beam="1">  1       21 0.81734600E-01 0.18423272E+03</pdfrwt>
<pdfrwt beam="2">  1       21 0.11516952E-01 0.18423272E+03</pdfrwt>
<totfact> 0.83027465E+04</totfact>
</mgrwt>
</event>
<event>
 4    1  0.4349106E+000  0.1767134E+03  0.7546771E-02  0.1171022E+00
         21   -1    0    0  503  502  0.00000000000E+00  0.00000000000E+00  0.76131738832E+03  0.76131738832E+03  0.00000000000E+00 0.  1.
         21   -1    0    0  501  503 -0.00000000000E+00 -0.00000000000E+00 -0.45687113450E+02  0.45687113450E+02  0.00000000000E+00 0. -1.
          6    1    1    2  501    0  0.33814257741E+02  0.12459410811E+02  0.22882071309E+03  0.28911340281E+03  0.17300000000E+03 0. -1.
         -6    1    1    2    0  502 -0.33814257741E+02 -0.12459410811E+02  0.48680956178E+03  0.51789109896E+03  0.17300000000E+03 0.  1.
<mgrwt>
<rscale>  2 0.17671344E+03</rscale>
<asrwt>0</asrwt>
<pdfrwt beam="1">  1       21 0.11712574E+00 0.17671344E+03</pdfrwt>
<pdfrwt beam="2">  1       21 0.70287872E-02 0.17671344E+03</pdfrwt>
<totfact> 0.84812855E+04</totfact>
</mgrwt>
</event>
<event>
 4    1  0.4349106E+000  0.2082359E+03  0.7546771E-02  0.1142971E+00
         21   -1    0    0  503  502  0.00000000000E+00  0.00000000000E+00  0.38202949602E+02  0.38202949602E+02  0.00000000000E+00 0.  1.
         21   -1    0    0  501  503 -0.00000000000E+00 -0.00000000000E+00 -0.12188818128E+04  0.12188818128E+04  0.00000000000E+00 0.  1.
          6    1    1    2  501    0  0.11374390949E+03  0.22260512034E+02 -0.75517906041E+03  0.78336301969E+03  0.17300000000E+03 0.  1.
         -6    1    1    2    0  502 -0.11374390949E+03 -0.22260512034E+02 -0.42549980281E+03  0.47372174273E+03  0.17300000000E+03 0.  1.
<mgrwt>
<rscale>  2 0.20823594E+03</rscale>
<asrwt>0</asrwt>
<pdfrwt beam="1">  1       21 0.58773765E-02 0.20823594E+03</pdfrwt>
<pdfrwt beam="2">  1       21 0.18752029E+00 0.20823594E+03</pdfrwt>
<totfact> 0.32741067E+04</totfact>
</mgrwt>
</event>
<event>
 4    1  0.4349106E+000  0.2841876E+03  0.7546771E-02  0.1093424E+00
         21   -1    0    0  503  502  0.00000000000E+00  0.00000000000E+00  0.45125516493E+03  0.45125516493E+03  0.00000000000E+00 0. -1.
         21   -1    0    0  501  503 -0.00000000000E+00 -0.00000000000E+00 -0.25943219030E+03  0.25943219030E+03  0.00000000000E+00 0.  1.
          6    1    1    2  501    0 -0.14560293204E+02  0.22499238680E+03 -0.10197857185E+03  0.30193079567E+03  0.17300000000E+03 0.  1.
         -6    1    1    2    0  502  0.14560293204E+02 -0.22499238680E+03  0.29380154648E+03  0.40875655955E+03  0.17300000000E+03 0. -1.
<mgrwt>
<rscale>  2 0.28418757E+03</rscale>
<asrwt>0</asrwt>
<pdfrwt beam="1">  1       21 0.69423871E-01 0.28418757E+03</pdfrwt>
<pdfrwt beam="2">  1       21 0.39912645E-01 0.28418757E+03</pdfrwt>
<totfact> 0.10832472E+04</totfact>
</mgrwt>
</event>
<event>
 4    1  0.4349106E+000  0.2086889E+03  0.7546771E-02  0.1142608E+00
         21   -1    0    0  503  502  0.00000000000E+00  0.00000000000E+00  0.11946559026E+04  0.11946559026E+04  0.00000000000E+00 0. -1.
         21   -1    0    0  501  503 -0.00000000000E+00 -0.00000000000E+00 -0.40161113962E+02  0.40161113962E+02  0.00000000000E+00 0. -1.
          6    1    1    2  501    0  0.11567717079E+03 -0.15519673613E+02  0.38968980039E+03  0.44205113803E+03  0.17300000000E+03 0. -1.
         -6    1    1    2    0  502 -0.11567717079E+03  0.15519673613E+02  0.76480498829E+03  0.79276587857E+03  0.17300000000E+03 0. -1.
<mgrwt>
<rscale>  2 0.20868893E+03</rscale>
<asrwt>0</asrwt>
<pdfrwt beam="1">  1       21 0.18379319E+00 0.20868893E+03</pdfrwt>
<pdfrwt beam="2">  1       21 0.61786338E-02 0.20868893E+03</pdfrwt>
<totfact> 0.31820785E+04</totfact>
</mgrwt>
</event>
<event>
 4    1  0.4349106E+000  0.1748730E+03  0.7546771E-02  0.1172859E+00
         21   -1    0    0  501  502  0.00000000000E+00  0.00000000000E+00  0.35442357694E+03  0.35442357694E+03  0.00000000000E+00 0. -1.
         21   -1    0    0  502  503 -0.00000000000E+00 -0.00000000000E+00 -0.11851622575E+03  0.11851622575E+03  0.00000000000E+00 0. -1.
          6    1    1    2  501    0  0.20255537538E+02 -0.15533300644E+02  0.24127604945E+03  0.29798439937E+03  0.17300000000E+03 0.  1.
         -6    1    1    2    0  503 -0.20255537538E+02  0.15533300644E+02 -0.53686982541E+01  0.17495540332E+03  0.17300000000E+03 0.  1.
<mgrwt>
<rscale>  2 0.17487301E+03</rscale>
<asrwt>0</asrwt>
<pdfrwt beam="1">  1       21 0.54526704E-01 0.17487301E+03</pdfrwt>
<pdfrwt beam="2">  1       21 0.18233266E-01 0.17487301E+03</pdfrwt>
<totfact> 0.87713201E+04</totfact>
</mgrwt>
</event>
<event>
 4    1  0.4349106E+000  0.2595261E+03  0.7546771E-02  0.1107428E+00
         21   -1    0    0  501  502  0.00000000000E+00  0.00000000000E+00  0.14333355954E+04  0.14333355954E+04  0.00000000000E+00 0. -1.
         21   -1    0    0  502  503 -0.00000000000E+00 -0.00000000000E+00 -0.68173004315E+02  0.68173004315E+02  0.00000000000E+00 0.  1.
          6    1    1    2  501    0  0.19318598476E+03 -0.10196838012E+02  0.11010622119E+04  0.11312346329E+04  0.17300000000E+03 0.  1.
         -6    1    1    2    0  503 -0.19318598476E+03  0.10196838012E+02  0.26410037920E+03  0.37027396682E+03  0.17300000000E+03 0. -1.
<mgrwt>
<rscale>  2 0.25952611E+03</rscale>
<asrwt>0</asrwt>
<pdfrwt beam="1">  1       21 0.22051315E+00 0.25952611E+03</pdfrwt>
<pdfrwt beam="2">  1       21 0.10488156E-01 0.25952611E+03</pdfrwt>
<totfact> 0.70550424E+03</totfact>
</mgrwt>
</event>
<event>
 4    1  0.4349106E+000  0.1759878E+03  0.7546771E-02  0.1171744E+00
         21   -1    0    0  503  502  0.00000000000E+00  0.00000000000E+00  0.25990579107E+03  0.25990579107E+03  0.00000000000E+00 0.  1.
         21   -1    0    0  501  503 -0.00000000000E+00 -0.00000000000E+00 -0.23737700134E+03  0.23737700134E+03  0.00000000000E+00 0.  1.
          6    1    1    2  501    0  0.24336523515E+02  0.21223727500E+02 -0.16419823032E+03  0.24069227621E+03  0.17300000000E+03 0.  1.
         -6    1    1    2    0  502 -0.24336523515E+02 -0.21223727500E+02  0.18672702005E+03  0.25659051620E+03  0.17300000000E+03 0.  1.
<mgrwt>
<rscale>  2 0.17598782E+03</rscale>
<asrwt>0</asrwt>
<pdfrwt beam="1">  1       21 0.39985506E-01 0.17598782E+03</pdfrwt>
<pdfrwt beam="2">  1       21 0.36519539E-01 0.17598782E+03</pdfrwt>
<totfact> 0.43947530E+04</totfact>
</mgrwt>
</event>
<event>
 4    1  0.4349106E+000  0.1773916E+03  0.7546771E-02  0.1170352E+00
         21   -1    0    0  503  502  0.00000000000E+00  0.00000000000E+00  0.19844783312E+03  0.19844783312E+03  0.00000000000E+00 0.  1.
         21   -1    0    0  501  503 -0.00000000000E+00 -0.00000000000E+00 -0.16376643872E+03  0.16376643872E+03  0.00000000000E+00 0.  1.
          6    1    1    2  501    0 -0.16793275888E+02 -0.35450761531E+02  0.49603162734E+02  0.18419621158E+03  0.17300000000E+03 0.  1.
         -6    1    1    2    0  502  0.16793275888E+02  0.35450761531E+02 -0.14921768331E+02  0.17801806026E+03  0.17300000000E+03 0.  1.
<mgrwt>
<rscale>  2 0.17739157E+03</rscale>
<asrwt>0</asrwt>
<pdfrwt beam="1">  1       21 0.30530436E-01 0.17739157E+03</pdfrwt>
<pdfrwt beam="2">  1       21 0.25194837E-01 0.17739157E+03</pdfrwt>
<totfact> 0.15443325E+05</totfact>
</mgrwt>
</event>
<event>
 4    1  0.4349106E+000  0.1911615E+03  0.7546771E-02  0.1157418E+00
         21   -1    0    0  503  502  0.00000000000E+00  0.00000000000E+00  0.13528222032E+03  0.13528222032E+03  0.00000000000E+00 0. -1.
         21   -1    0    0  501  503 -0.00000000000E+00 -0.00000000000E+00 -0.41272406996E+03  0.41272406996E+03  0.00000000000E+00 0. -1.
          6    1    1    2  501    0 -0.81113414130E+02 -0.58601902118E+01 -0.29978114753E+03  0.35554389911E+03  0.17300000000E+03 0. -1.
         -6    1    1    2    0  502  0.81113414130E+02  0.58601902118E+01  0.22339297891E+02  0.19246239116E+03  0.17300000000E+03 0. -1.
<mgrwt>
<rscale>  2 0.19116152E+03</rscale>
<asrwt>0</asrwt>
<pdfrwt beam="1">  1       21 0.20812650E-01 0.19116152E+03</pdfrwt>
<pdfrwt beam="2">  1       21 0.63496009E-01 0.19116152E+03</pdfrwt>
<totfact> 0.49168532E+04</totfact>
</mgrwt>
</event>
<event>
 4    1  0.4349106E+000  0.2078140E+03  0.7546771E-02  0.1143309E+00
         21   -1    0    0  501  502  0.00000000000E+00  0.00000000000E+00  0.32704528811E+02  0.32704528811E+02  0.00000000000E+00 0. -1.
         21   -1    0    0  502  503 -0.00000000000E+00 -0.00000000000E+00 -0.20599359513E+04  0.20599359513E+04  0.00000000000E+00 0.  1.
          6    1    1    2  501    0  0.11373846390E+03  0.17922510881E+02 -0.38673466799E+03  0.43903343608E+03  0.17300000000E+03 0. -1.
         -6    1    1    2    0  503 -0.11373846390E+03 -0.17922510881E+02 -0.16404967545E+04  0.16536070440E+04  0.17300000000E+03 0.  1.
<mgrwt>
<rscale>  2 0.20781399E+03</rscale>
<asrwt>0</asrwt>
<pdfrwt beam="1">  1       21 0.50314659E-02 0.20781399E+03</pdfrwt>
<pdfrwt beam="2">  1       21 0.31691323E+00 0.20781399E+03</pdfrwt>
<totfact> 0.71358586E+03</totfact>
</mgrwt>
</event>
<event>
 4    1  0.4349106E+000  0.3200765E+03  0.7546771E-02  0.1075614E+00
         21   -1    0    0  503  502  0.00000000000E+00  0.00000000000E+00  0.70068572402E+03  0.70068572402E+03  0.00000000000E+00 0.  1.
         21   -1    0    0  501  503 -0.00000000000E+00 -0.00000000000E+00 -0.19502892809E+04  0.19502892809E+04  0.00000000000E+00 0. -1.
          6    1    1    2  501    0 -0.11430181162E+03 -0.24383406108E+03 -0.18996357819E+04  0.19264124837E+04  0.17300000000E+03 0. -1.
         -6    1    1    2    0  502  0.11430181162E+03  0.24383406108E+03  0.65003222506E+03  0.72456252118E+03  0.17300000000E+03 0.  1.
<mgrwt>
<rscale>  2 0.32007648E+03</rscale>
<asrwt>0</asrwt>
<pdfrwt beam="1">  1       21 0.10779781E+00 0.32007648E+03</pdfrwt>
<pdfrwt beam="2">  1       21 0.30004450E+00 0.32007648E+03</pdfrwt>
<totfact> 0.19542821E+01</totfact>
</mgrwt>
</event>
<event>
 4    1  0.4349106E+000  0.1839895E+03  0.7546771E-02  0.1163997E+00
         21   -1    0    0  501  502  0.00000000000E+00  0.00000000000E+00  0.10587150549E+04  0.10587150549E+04  0.00000000000E+00 0. -1.
         21   -1    0    0  502  503 -0.00000000000E+00 -0.00000000000E+00 -0.82204937479E+02  0.82204937479E+02  0.00000000000E+00 0.  1.
          6    1    1    2  501    0  0.57182880001E+02  0.25558553289E+02  0.93417691166E+03  0.95212321876E+03  0.17300000000E+03 0. -1.
         -6    1    1    2    0  503 -0.57182880001E+02 -0.25558553289E+02  0.42333205728E+02  0.18879677359E+03  0.17300000000E+03 0.  1.
<mgrwt>
<rscale>  2 0.18398946E+03</rscale>
<asrwt>0</asrwt>
<pdfrwt beam="1">  1       21 0.16287923E+00 0.18398946E+03</pdfrwt>
<pdfrwt beam="2">  1       21 0.12646914E-01 0.18398946E+03</pdfrwt>
<totfact> 0.12893607E+04</totfact>
</mgrwt>
</event>
<event>
 4    1  0.4349106E+000  0.1800157E+03  0.7546771E-02  0.1167788E+00
         21   -1    0    0  503  502  0.00000000000E+00  0.00000000000E+00  0.76885570130E+02  0.76885570130E+02  0.00000000000E+00 0. -1.
         21   -1    0    0  501  503 -0.00000000000E+00 -0.00000000000E+00 -0.42970381282E+03  0.42970381282E+03  0.00000000000E+00 0. -1.
          6    1    1    2  501    0  0.31017149207E+02  0.38917498157E+02 -0.21145287981E+03  0.27770119839E+03  0.17300000000E+03 0. -1.
         -6    1    1    2    0  502 -0.31017149207E+02 -0.38917498157E+02 -0.14136536288E+03  0.22888818456E+03  0.17300000000E+03 0. -1.
<mgrwt>
<rscale>  2 0.18001565E+03</rscale>
<asrwt>0</asrwt>
<pdfrwt beam="1">  1       21 0.11828549E-01 0.18001565E+03</pdfrwt>
<pdfrwt beam="2">  1       21 0.66108280E-01 0.18001565E+03</pdfrwt>
<totfact> 0.12705137E+05</totfact>
</mgrwt>
</event>
<event>
 4    1  0.4349106E+000  0.2006505E+03  0.7546771E-02  0.1149191E+00
         21   -1    0    0  503  502  0.00000000000E+00  0.00000000000E+00  0.50515153968E+02  0.50515153968E+02  0.00000000000E+00 0. -1.
         21   -1    0    0  501  503 -0.00000000000E+00 -0.00000000000E+00 -0.79741796245E+03  0.79741796245E+03  0.00000000000E+00 0. -1.
          6    1    1    2  501    0  0.13257541040E+02  0.10077621340E+03 -0.38315091461E+03  0.43251038248E+03  0.17300000000E+03 0. -1.
         -6    1    1    2    0  502 -0.13257541040E+02 -0.10077621340E+03 -0.36375189387E+03  0.41542273394E+03  0.17300000000E+03 0. -1.
<mgrwt>
<rscale>  2 0.20065046E+03</rscale>
<asrwt>0</asrwt>
<pdfrwt beam="1">  1       21 0.77715620E-02 0.20065046E+03</pdfrwt>
<pdfrwt beam="2">  1       21 0.12267969E+00 0.20065046E+03</pdfrwt>
<totfact> 0.62830441E+04</totfact>
</mgrwt>
</event>
<event>
 4    1  0.4349106E+000  0.2809918E+03  0.7546771E-02  0.1095148E+00
         21   -1    0    0  501  502  0.00000000000E+00  0.00000000000E+00  0.23126971116E+03  0.23126971116E+03  0.00000000000E+00 0. -1.
         21   -1    0    0  502  503 -0.00000000000E+00 -0.00000000000E+00 -0.55720597985E+03  0.55720597985E+03  0.00000000000E+00 0. -1.
          6    1    1    2  501    0  0.20037536433E+03 -0.94218267760E+02  0.82377478691E+02  0.29281806229E+03  0.17300000000E+03 0. -1.
         -6    1    1    2    0  503 -0.20037536433E+03  0.94218267760E+02 -0.40831374738E+03  0.49565762872E+03  0.17300000000E+03 0. -1.
<mgrwt>
<rscale>  2 0.28099176E+03</rscale>
<asrwt>0</asrwt>
<pdfrwt beam="1">  1       21 0.35579956E-01 0.28099176E+03</pdfrwt>
<pdfrwt beam="2">  1       21 0.85723997E-01 0.28099176E+03</pdfrwt>
<totfact> 0.84831131E+03</totfact>
</mgrwt>
</event>
<event>
 4    1  0.4349106E+000  0.2415148E+03  0.7546771E-02  0.1118788E+00
         21   -1    0    0  501  502  0.00000000000E+00  0.00000000000E+00  0.26006766131E+03  0.26006766131E+03  0.00000000000E+00 0. -1.
         21   -1    0    0  502  503 -0.00000000000E+00 -0.00000000000E+00 -0.53902751112E+03  0.53902751112E+03  0.00000000000E+00 0. -1.
          6    1    1    2  501    0  0.75928150268E+02 -0.15045030522E+03  0.16582968564E+03  0.29296563447E+03  0.17300000000E+03 0. -1.
         -6    1    1    2    0  503 -0.75928150268E+02  0.15045030522E+03 -0.44478953545E+03  0.50612953796E+03  0.17300000000E+03 0. -1.
<mgrwt>
<rscale>  2 0.24151476E+03</rscale>
<asrwt>0</asrwt>
<pdfrwt beam="1">  1       21 0.40010410E-01 0.24151476E+03</pdfrwt>
<pdfrwt beam="2">  1       21 0.82927309E-01 0.24151476E+03</pdfrwt>
<totfact> 0.73843614E+03</totfact>
</mgrwt>
</event>
<event>
 4    1  0.4349106E+000  0.1853908E+03  0.7546771E-02  0.1162685E+00
         21   -1    0    0  501  502  0.00000000000E+00  0.00000000000E+00  0.60331577899E+03  0.60331577899E+03  0.00000000000E+00 0.  1.
         21   -1    0    0  502  503 -0.00000000000E+00 -0.00000000000E+00 -0.57732929500E+02  0.57732929500E+02  0.00000000000E+00 0.  1.
          6    1    1    2  501    0 -0.55152258086E+02 -0.37402915453E+02  0.23474832881E+03  0.29912627356E+03  0.17300000000E+03 0.  1.
         -6    1    1    2    0  503  0.55152258086E+02  0.37402915453E+02  0.31083452068E+03  0.36192243492E+03  0.17300000000E+03 0.  1.
<mgrwt>
<rscale>  2 0.18539080E+03</rscale>
<asrwt>0</asrwt>
<pdfrwt beam="1">  1       21 0.92817808E-01 0.18539080E+03</pdfrwt>
<pdfrwt beam="2">  1       21 0.88819896E-02 0.18539080E+03</pdfrwt>
<totfact> 0.98059126E+04</totfact>
</mgrwt>
</event>
<event>
 4    1  0.4349106E+000  0.2413805E+03  0.7546771E-02  0.1118877E+00
         21   -1    0    0  501  502  0.00000000000E+00  0.00000000000E+00  0.23923318831E+03  0.23923318831E+03  0.00000000000E+00 0.  1.
         21   -1    0    0  502  503 -0.00000000000E+00 -0.00000000000E+00 -0.25669796292E+03  0.25669796292E+03  0.00000000000E+00 0.  1.
          6    1    1    2  501    0 -0.26761723966E+02  0.16619077672E+03 -0.64857377627E+02  0.24994208043E+03  0.17300000000E+03 0.  1.
         -6    1    1    2    0  503  0.26761723966E+02 -0.16619077672E+03  0.47392603019E+02  0.24598907081E+03  0.17300000000E+03 0.  1.
<mgrwt>
<rscale>  2 0.24138054E+03</rscale>
<asrwt>0</asrwt>
<pdfrwt beam="1">  1       21 0.36805106E-01 0.24138054E+03</pdfrwt>
<pdfrwt beam="2">  1       21 0.39491994E-01 0.24138054E+03</pdfrwt>
<totfact> 0.43012711E+04</totfact>
</mgrwt>
</event>
<event>
 4    1  0.4349106E+000  0.1828935E+03  0.7546771E-02  0.1165032E+00
         21   -1    0    0  501  502  0.00000000000E+00  0.00000000000E+00  0.52316708235E+03  0.52316708235E+03  0.00000000000E+00 0. -1.
         21   -1    0    0  502  503 -0.00000000000E+00 -0.00000000000E+00 -0.10034411722E+03  0.10034411722E+03  0.00000000000E+00 0. -1.
          6    1    1    2  501    0  0.59089756986E+02  0.54246820933E+01  0.39919527796E+03  0.43909782111E+03  0.17300000000E+03 0. -1.
         -6    1    1    2    0  503 -0.59089756986E+02 -0.54246820933E+01  0.23627687166E+02  0.18441337847E+03  0.17300000000E+03 0. -1.
<mgrwt>
<rscale>  2 0.18289348E+03</rscale>
<asrwt>0</asrwt>
<pdfrwt beam="1">  1       21 0.80487242E-01 0.18289348E+03</pdfrwt>
<pdfrwt beam="2">  1       21 0.15437557E-01 0.18289348E+03</pdfrwt>
<totfact> 0.50736644E+04</totfact>
</mgrwt>
</event>
<event>
 4    1  0.4349106E+000  0.2130161E+03  0.7546771E-02  0.1139200E+00
         21   -1    0    0  501  502  0.00000000000E+00  0.00000000000E+00  0.28152308167E+03  0.28152308167E+03  0.00000000000E+00 0. -1.
         21   -1    0    0  502  503 -0.00000000000E+00 -0.00000000000E+00 -0.16119002340E+03  0.16119002340E+03  0.00000000000E+00 0.  1.
          6    1    1    2  501    0  0.12269142068E+03 -0.19840905022E+02  0.61925654813E+02  0.22183469734E+03  0.17300000000E+03 0. -1.
         -6    1    1    2    0  503 -0.12269142068E+03  0.19840905022E+02  0.58407403458E+02  0.22087840773E+03  0.17300000000E+03 0.  1.
<mgrwt>
<rscale>  2 0.21301607E+03</rscale>
<asrwt>0</asrwt>
<pdfrwt beam="1">  1       21 0.43311243E-01 0.21301607E+03</pdfrwt>
<pdfrwt beam="2">  1       21 0.24798465E-01 0.21301607E+03</pdfrwt>
<totfact> 0.78149725E+04</totfact>
</mgrwt>
</event>
<event>
 4    1  0.4349106E+000  0.1881814E+03  0.7546771E-02  0.1160112E+00
         21   -1    0    0  503  502  0.00000000000E+00  0.00000000000E+00  0.54690136224E+03  0.54690136224E+03  0.00000000000E+00 0. -1.
         21   -1    0    0  501  503 -0.00000000000E+00 -0.00000000000E+00 -0.94009715682E+02  0.94009715682E+02  0.00000000000E+00 0. -1.
          6    1    1    2  501    0  0.30528296874E+02 -0.67462972265E+02  0.47668886055E+02  0.19412509429E+03  0.17300000000E+03 0. -1.
         -6    1    1    2    0  502 -0.30528296874E+02  0.67462972265E+02  0.40522276050E+03  0.44678598363E+03  0.17300000000E+03 0. -1.
<mgrwt>
<rscale>  2 0.18818137E+03</rscale>
<asrwt>0</asrwt>
<pdfrwt beam="1">  1       21 0.84138669E-01 0.18818137E+03</pdfrwt>
<pdfrwt beam="2">  1       21 0.14463034E-01 0.18818137E+03</pdfrwt>
<totfact> 0.51520294E+04</totfact>
</mgrwt>
</event>
<event>
 4    1  0.4349106E+000  0.1780728E+03  0.7546771E-02  0.1169681E+00
         21   -1    0    0  501  502  0.00000000000E+00  0.00000000000E+00  0.21229137021E+03  0.21229137021E+03  0.00000000000E+00 0.  1.
         21   -1    0    0  502  503 -0.00000000000E+00 -0.00000000000E+00 -0.16226328144E+03  0.16226328144E+03  0.00000000000E+00 0. -1.
          6    1    1    2  501    0  0.20728862112E+02  0.36759290047E+02  0.77804966758E+02  0.19432844357E+03  0.17300000000E+03 0.  1.
         -6    1    1    2    0  503 -0.20728862112E+02 -0.36759290047E+02 -0.27776877989E+02  0.18022620808E+03  0.17300000000E+03 0. -1.
<mgrwt>
<rscale>  2 0.17807283E+03</rscale>
<asrwt>0</asrwt>
<pdfrwt beam="1">  1       21 0.32660211E-01 0.17807283E+03</pdfrwt>
<pdfrwt beam="2">  1       21 0.24963582E-01 0.17807283E+03</pdfrwt>
<totfact> 0.13771258E+05</totfact>
</mgrwt>
</event>
<event>
 4    1  0.4349106E+000  0.2004228E+03  0.7546771E-02  0.1149383E+00
         21   -1    0    0  503  502  0.00000000000E+00  0.00000000000E+00  0.56293136346E+02  0.56293136346E+02  0.00000000000E+00 0.  1.
         21   -1    0    0  501  503 -0.00000000000E+00 -0.00000000000E+00 -0.13205108330E+04  0.13205108330E+04  0.00000000000E+00 0. -1.
          6    1    1    2  501    0 -0.52876420022E+01 -0.10105620969E+03 -0.10988143152E+04  0.11169432465E+04  0.17300000000E+03 0. -1.
         -6    1    1    2    0  502  0.52876420022E+01  0.10105620969E+03 -0.16540338150E+03  0.25986072286E+03  0.17300000000E+03 0.  1.
<mgrwt>
<rscale>  2 0.20042284E+03</rscale>
<asrwt>0</asrwt>
<pdfrwt beam="1">  1       21 0.86604822E-02 0.20042284E+03</pdfrwt>
<pdfrwt beam="2">  1       21 0.20315552E+00 0.20042284E+03</pdfrwt>
<totfact> 0.13308652E+04</totfact>
</mgrwt>
</event>
<event>
 4    1  0.4349106E+000  0.2013433E+03  0.7546771E-02  0.1148611E+00
         21   -1    0    0  503  502  0.00000000000E+00  0.00000000000E+00  0.27521831177E+03  0.27521831177E+03  0.00000000000E+00 0.  1.
         21   -1    0    0  501  503 -0.00000000000E+00 -0.00000000000E+00 -0.16280575950E+03  0.16280575950E+03  0.00000000000E+00 0. -1.
          6    1    1    2  501    0 -0.80835565713E+02  0.63841395859E+02 -0.11387598523E+02  0.20166504385E+03  0.17300000000E+03 0. -1.
         -6    1    1    2    0  502  0.80835565713E+02 -0.63841395859E+02  0.12380015079E+03  0.23635902743E+03  0.17300000000E+03 0.  1.
<mgrwt>
<rscale>  2 0.20134327E+03</rscale>
<asrwt>0</asrwt>
<pdfrwt beam="1">  1       21 0.42341279E-01 0.20134327E+03</pdfrwt>
<pdfrwt beam="2">  1       21 0.25047040E-01 0.20134327E+03</pdfrwt>
<totfact> 0.80701045E+04</totfact>
</mgrwt>
</event>
<event>
 4    1  0.4349106E+000  0.1800568E+03  0.7546771E-02  0.1167748E+00
         21   -1    0    0  501  502  0.00000000000E+00  0.00000000000E+00  0.89896157984E+02  0.89896157984E+02  0.00000000000E+00 0.  1.
         21   -1    0    0  502  503 -0.00000000000E+00 -0.00000000000E+00 -0.70995049450E+03  0.70995049450E+03  0.00000000000E+00 0.  1.
          6    1    1    2  501    0 -0.14439962250E+02 -0.47780092238E+02 -0.29505476175E+02  0.18245827701E+03  0.17300000000E+03 0.  1.
         -6    1    1    2    0  503  0.14439962250E+02  0.47780092238E+02 -0.59054886034E+03  0.61738837548E+03  0.17300000000E+03 0.  1.
<mgrwt>
<rscale>  2 0.18005680E+03</rscale>
<asrwt>0</asrwt>
<pdfrwt beam="1">  1       21 0.13830178E-01 0.18005680E+03</pdfrwt>
<pdfrwt beam="2">  1       21 0.10922315E+00 0.18005680E+03</pdfrwt>
<totfact> 0.30420297E+04</totfact>
</mgrwt>
</event>
<event>
 4    1  0.4349106E+000  0.2270539E+03  0.7546771E-02  0.1128731E+00
         21   -1    0    0  503  502  0.00000000000E+00  0.00000000000E+00  0.85882064015E+02  0.85882064015E+02  0.00000000000E+00 0.  1.
         21   -1    0    0  501  503 -0.00000000000E+00 -0.00000000000E+00 -0.65915602925E+03  0.65915602925E+03  0.00000000000E+00 0.  1.
          6    1    1    2  501    0  0.39736400674E+02  0.14158213153E+03 -0.39796774984E+03  0.45818316362E+03  0.17300000000E+03 0.  1.
         -6    1    1    2    0  502 -0.39736400674E+02 -0.14158213153E+03 -0.17530621539E+03  0.28685492964E+03  0.17300000000E+03 0.  1.
<mgrwt>
<rscale>  2 0.22705392E+03</rscale>
<asrwt>0</asrwt>
<pdfrwt beam="1">  1       21 0.13212626E-01 0.22705392E+03</pdfrwt>
<pdfrwt beam="2">  1       21 0.10140862E+00 0.22705392E+03</pdfrwt>
<totfact> 0.38503620E+04</totfact>
</mgrwt>
</event>
<event>
 4    1  0.4349106E+000  0.2005957E+03  0.7546771E-02  0.1149237E+00
         21   -1    0    0  501  502  0.00000000000E+00  0.00000000000E+00  0.27232039512E+03  0.27232039512E+03  0.00000000000E+00 0.  1.
         21   -1    0    0  502  503 -0.00000000000E+00 -0.00000000000E+00 -0.14981065035E+03  0.14981065035E+03  0.00000000000E+00 0.  1.
          6    1    1    2  501    0 -0.10132632973E+03 -0.65263234312E+01  0.85936585056E+02  0.21822858348E+03  0.17300000000E+03 0.  1.
         -6    1    1    2    0  503  0.10132632973E+03  0.65263234312E+01  0.36573159719E+02  0.20390246199E+03  0.17300000000E+03 0.  1.
<mgrwt>
<rscale>  2 0.20059566E+03</rscale>
<asrwt>0</asrwt>
<pdfrwt beam="1">  1       21 0.41895445E-01 0.20059566E+03</pdfrwt>
<pdfrwt beam="2">  1       21 0.23047792E-01 0.20059566E+03</pdfrwt>
<totfact> 0.96636732E+04</totfact>
</mgrwt>
</event>
<event>
 4    1  0.4349106E+000  0.2264680E+03  0.7546771E-02  0.1129151E+00
         21   -1    0    0  501  502  0.00000000000E+00  0.00000000000E+00  0.68378630348E+02  0.68378630348E+02  0.00000000000E+00 0.  1.
         21   -1    0    0  502  503 -0.00000000000E+00 -0.00000000000E+00 -0.87756084732E+03  0.87756084732E+03  0.00000000000E+00 0.  1.
          6    1    1    2  501    0 -0.14108852145E+03  0.38115644425E+02 -0.22430643866E+03  0.31874935555E+03  0.17300000000E+03 0.  1.
         -6    1    1    2    0  503  0.14108852145E+03 -0.38115644425E+02 -0.58487577831E+03  0.62719012212E+03  0.17300000000E+03 0.  1.
<mgrwt>
<rscale>  2 0.22646804E+03</rscale>
<asrwt>0</asrwt>
<pdfrwt beam="1">  1       21 0.10519790E-01 0.22646804E+03</pdfrwt>
<pdfrwt beam="2">  1       21 0.13500935E+00 0.22646804E+03</pdfrwt>
<totfact> 0.28564997E+04</totfact>
</mgrwt>
</event>
<event>
 4    1  0.4349106E+000  0.2163104E+03  0.7546771E-02  0.1136664E+00
         21   -1    0    0  503  502  0.00000000000E+00  0.00000000000E+00  0.22074135652E+03  0.22074135652E+03  0.00000000000E+00 0.  1.
         21   -1    0    0  501  503 -0.00000000000E+00 -0.00000000000E+00 -0.28561986444E+03  0.28561986444E+03  0.00000000000E+00 0.  1.
          6    1    1    2  501    0 -0.11805733207E+02 -0.12931280072E+03 -0.16100555543E+03  0.26965341579E+03  0.17300000000E+03 0.  1.
         -6    1    1    2    0  502  0.11805733207E+02  0.12931280072E+03  0.96127047517E+02  0.23670780518E+03  0.17300000000E+03 0.  1.
<mgrwt>
<rscale>  2 0.21631037E+03</rscale>
<asrwt>0</asrwt>
<pdfrwt beam="1">  1       21 0.33960209E-01 0.21631037E+03</pdfrwt>
<pdfrwt beam="2">  1       21 0.43941517E-01 0.21631037E+03</pdfrwt>
<totfact> 0.41076942E+04</totfact>
</mgrwt>
</event>
<event>
 4    1  0.4349106E+000  0.2883613E+03  0.7546771E-02  0.1091208E+00
         21   -1    0    0  501  502  0.00000000000E+00  0.00000000000E+00  0.13406514312E+03  0.13406514312E+03  0.00000000000E+00 0. -1.
         21   -1    0    0  502  503 -0.00000000000E+00 -0.00000000000E+00 -0.80502945378E+03  0.80502945378E+03  0.00000000000E+00 0. -1.
          6    1    1    2  501    0 -0.98595256750E+02  0.20857181079E+03 -0.11051711836E+03  0.30881427810E+03  0.17300000000E+03 0. -1.
         -6    1    1    2    0  503  0.98595256750E+02 -0.20857181079E+03 -0.56044719230E+03  0.63028031880E+03  0.17300000000E+03 0. -1.
<mgrwt>
<rscale>  2 0.28836127E+03</rscale>
<asrwt>0</asrwt>
<pdfrwt beam="1">  1       21 0.20625407E-01 0.28836127E+03</pdfrwt>
<pdfrwt beam="2">  1       21 0.12385068E+00 0.28836127E+03</pdfrwt>
<totfact> 0.10038536E+04</totfact>
</mgrwt>
</event>
<event>
 4    1  0.4349106E+000  0.2257473E+03  0.7546771E-02  0.1129669E+00
         21   -1    0    0  503  502  0.00000000000E+00  0.00000000000E+00  0.10044334419E+04  0.10044334419E+04  0.00000000000E+00 0. -1.
         21   -1    0    0  501  503 -0.00000000000E+00 -0.00000000000E+00 -0.64879857491E+02  0.64879857491E+02  0.00000000000E+00 0.  1.
          6    1    1    2  501    0 -0.95626124283E+02  0.10903428092E+03  0.22015052347E+03  0.31532218927E+03  0.17300000000E+03 0.  1.
         -6    1    1    2    0  502  0.95626124283E+02 -0.10903428092E+03  0.71940306097E+03  0.75399111016E+03  0.17300000000E+03 0. -1.
<mgrwt>
<rscale>  2 0.22574727E+03</rscale>
<asrwt>0</asrwt>
<pdfrwt beam="1">  1       21 0.15452821E+00 0.22574727E+03</pdfrwt>
<pdfrwt beam="2">  1       21 0.99815173E-02 0.22574727E+03</pdfrwt>
<totfact> 0.22021846E+04</totfact>
</mgrwt>
</event>
<event>
 4    1  0.4349106E+000  0.2109158E+03  0.7546771E-02  0.1140843E+00
         21   -1    0    0  501  502  0.00000000000E+00  0.00000000000E+00  0.20409474568E+03  0.20409474568E+03  0.00000000000E+00 0.  1.
         21   -1    0    0  502  503 -0.00000000000E+00 -0.00000000000E+00 -0.42521698609E+03  0.42521698609E+03  0.00000000000E+00 0.  1.
          6    1    1    2  501    0  0.62454052862E+02 -0.10322772010E+03  0.10911360282E+03  0.23746841734E+03  0.17300000000E+03 0.  1.
         -6    1    1    2    0  503 -0.62454052862E+02  0.10322772010E+03 -0.33023584322E+03  0.39184331443E+03  0.17300000000E+03 0.  1.
<mgrwt>
<rscale>  2 0.21091579E+03</rscale>
<asrwt>0</asrwt>
<pdfrwt beam="1">  1       21 0.31399192E-01 0.21091579E+03</pdfrwt>
<pdfrwt beam="2">  1       21 0.65417997E-01 0.21091579E+03</pdfrwt>
<totfact> 0.20726006E+04</totfact>
</mgrwt>
</event>
<event>
 4    1  0.4349106E+000  0.2488944E+03  0.7546771E-02  0.1114006E+00
         21   -1    0    0  503  502  0.00000000000E+00  0.00000000000E+00  0.32516423047E+03  0.32516423047E+03  0.00000000000E+00 0.  1.
         21   -1    0    0  501  503 -0.00000000000E+00 -0.00000000000E+00 -0.20247212222E+03  0.20247212222E+03  0.00000000000E+00 0. -1.
          6    1    1    2  501    0 -0.82720134954E+02 -0.15867205993E+03 -0.27671850973E+01  0.24890982432E+03  0.17300000000E+03 0. -1.
         -6    1    1    2    0  502  0.82720134954E+02  0.15867205993E+03  0.12545929335E+03  0.27872652837E+03  0.17300000000E+03 0.  1.
<mgrwt>
<rscale>  2 0.24889444E+03</rscale>
<asrwt>0</asrwt>
<pdfrwt beam="1">  1       21 0.50025266E-01 0.24889444E+03</pdfrwt>
<pdfrwt beam="2">  1       21 0.31149557E-01 0.24889444E+03</pdfrwt>
<totfact> 0.36686499E+04</totfact>
</mgrwt>
</event>
<event>
 4    1  0.4349106E+000  0.1800883E+03  0.7546771E-02  0.1167718E+00
         21   -1    0    0  501  502  0.00000000000E+00  0.00000000000E+00  0.65499774926E+02  0.65499774926E+02  0.00000000000E+00 0. -1.
         21   -1    0    0  502  503 -0.00000000000E+00 -0.00000000000E+00 -0.61710246885E+03  0.61710246885E+03  0.00000000000E+00 0.  1.
          6    1    1    2  501    0 -0.35331858219E+02  0.35418422219E+02 -0.12407343444E+03  0.21869161386E+03  0.17300000000E+03 0. -1.
         -6    1    1    2    0  503  0.35331858219E+02 -0.35418422219E+02 -0.42752925948E+03  0.46391062992E+03  0.17300000000E+03 0.  1.
<mgrwt>
<rscale>  2 0.18008833E+03</rscale>
<asrwt>0</asrwt>
<pdfrwt beam="1">  1       21 0.10076889E-01 0.18008833E+03</pdfrwt>
<pdfrwt beam="2">  1       21 0.94938840E-01 0.18008833E+03</pdfrwt>
<totfact> 0.74684811E+04</totfact>
</mgrwt>
</event>
<event>
 4    1  0.4349106E+000  0.2042660E+03  0.7546771E-02  0.1146189E+00
         21   -1    0    0  503  502  0.00000000000E+00  0.00000000000E+00  0.49500703589E+02  0.49500703589E+02  0.00000000000E+00 0. -1.
         21   -1    0    0  501  503 -0.00000000000E+00 -0.00000000000E+00 -0.85392594742E+03  0.85392594742E+03  0.00000000000E+00 0.  1.
          6    1    1    2  501    0  0.68331295793E+02  0.84418223951E+02 -0.45351977030E+03  0.49739801424E+03  0.17300000000E+03 0. -1.
         -6    1    1    2    0  502 -0.68331295793E+02 -0.84418223951E+02 -0.35090547353E+03  0.40602863676E+03  0.17300000000E+03 0.  1.
<mgrwt>
<rscale>  2 0.20426601E+03</rscale>
<asrwt>0</asrwt>
<pdfrwt beam="1">  1       21 0.76154941E-02 0.20426601E+03</pdfrwt>
<pdfrwt beam="2">  1       21 0.13137320E+00 0.20426601E+03</pdfrwt>
<totfact> 0.54688266E+04</totfact>
</mgrwt>
</event>
<event>
 4    1  0.4349106E+000  0.1808257E+03  0.7546771E-02  0.1167006E+00
         21   -1    0    0  501  502  0.00000000000E+00  0.00000000000E+00  0.11540890021E+03  0.11540890021E+03  0.00000000000E+00 0. -1.
         21   -1    0    0  502  503 -0.00000000000E+00 -0.00000000000E+00 -0.29948840525E+03  0.29948840525E+03  0.00000000000E+00 0. -1.
          6    1    1    2  501    0  0.30090479571E+02 -0.43168058460E+02 -0.43842426720E+02  0.18606471082E+03  0.17300000000E+03 0.  1.
         -6    1    1    2    0  503 -0.30090479571E+02  0.43168058460E+02 -0.14023707833E+03  0.22883259464E+03  0.17300000000E+03 0.  1.
<mgrwt>
<rscale>  2 0.18082566E+03</rscale>
<asrwt>0</asrwt>
<pdfrwt beam="1">  1       21 0.17755215E-01 0.18082566E+03</pdfrwt>
<pdfrwt beam="2">  1       21 0.46075140E-01 0.18082566E+03</pdfrwt>
<totfact> 0.13050788E+05</totfact>
</mgrwt>
</event>
<event>
 4    1  0.4349106E+000  0.1827363E+03  0.7546771E-02  0.1165181E+00
         21   -1    0    0  503  502  0.00000000000E+00  0.00000000000E+00  0.45591283355E+03  0.45591283355E+03  0.00000000000E+00 0.  1.
         21   -1    0    0  501  503 -0.00000000000E+00 -0.00000000000E+00 -0.13046463282E+03  0.13046463282E+03  0.00000000000E+00 0. -1.
          6    1    1    2  501    0 -0.51221502742E+02  0.28980965138E+02 -0.31444966998E+02  0.18542201766E+03  0.17300000000E+03 0. -1.
         -6    1    1    2    0  502  0.51221502742E+02 -0.28980965138E+02  0.35689316772E+03  0.40095544871E+03  0.17300000000E+03 0.  1.
<mgrwt>
<rscale>  2 0.18273625E+03</rscale>
<asrwt>0</asrwt>
<pdfrwt beam="1">  1       21 0.70140435E-01 0.18273625E+03</pdfrwt>
<pdfrwt beam="2">  1       21 0.20071482E-01 0.18273625E+03</pdfrwt>
<totfact> 0.42508726E+04</totfact>
</mgrwt>
</event>
<event>
 4    1  0.4349106E+000  0.1984854E+03  0.7546771E-02  0.1151023E+00
         21   -1    0    0  503  502  0.00000000000E+00  0.00000000000E+00  0.12112553252E+03  0.12112553252E+03  0.00000000000E+00 0.  1.
         21   -1    0    0  501  503 -0.00000000000E+00 -0.00000000000E+00 -0.36532054752E+03  0.36532054752E+03  0.00000000000E+00 0.  1.
          6    1    1    2  501    0 -0.75423187875E+02 -0.61471837047E+02 -0.20264721905E+03  0.28365884334E+03  0.17300000000E+03 0.  1.
         -6    1    1    2    0  502  0.75423187875E+02  0.61471837047E+02 -0.41547795942E+02  0.20278723670E+03  0.17300000000E+03 0.  1.
<mgrwt>
<rscale>  2 0.19848537E+03</rscale>
<asrwt>0</asrwt>
<pdfrwt beam="1">  1       21 0.18634697E-01 0.19848537E+03</pdfrwt>
<pdfrwt beam="2">  1       21 0.56203161E-01 0.19848537E+03</pdfrwt>
<totfact> 0.78250098E+04</totfact>
</mgrwt>
</event>
<event>
 4    1  0.4349106E+000  0.1829352E+03  0.7546771E-02  0.1164992E+00
         21   -1    0    0  503  502  0.00000000000E+00  0.00000000000E+00  0.14082033608E+04  0.14082033608E+04  0.00000000000E+00 0. -1.
         21   -1    0    0  501  503 -0.00000000000E+00 -0.00000000000E+00 -0.24588338198E+02  0.24588338198E+02  0.00000000000E+00 0. -1.
          6    1    1    2  501    0  0.46858256180E+02 -0.36613848512E+02  0.56067648929E+03  0.58976554301E+03  0.17300000000E+03 0. -1.
         -6    1    1    2    0  502 -0.46858256180E+02  0.36613848512E+02  0.82293853327E+03  0.84302615595E+03  0.17300000000E+03 0. -1.
<mgrwt>
<rscale>  2 0.18293515E+03</rscale>
<asrwt>0</asrwt>
<pdfrwt beam="1">  1       21 0.21664661E+00 0.18293515E+03</pdfrwt>
<pdfrwt beam="2">  1       21 0.37828224E-02 0.18293515E+03</pdfrwt>
<totfact> 0.45701701E+04</totfact>
</mgrwt>
</event>
<event>
 4    1  0.4349106E+000  0.1750758E+03  0.7546771E-02  0.1172656E+00
         21   -1    0    0  503  502  0.00000000000E+00  0.00000000000E+00  0.40817987100E+02  0.40817987100E+02  0.00000000000E+00 0. -1.
         21   -1    0    0  501  503 -0.00000000000E+00 -0.00000000000E+00 -0.75093606913E+03  0.75093606913E+03  0.00000000000E+00 0. -1.
          6    1    1    2  501    0  0.26537855055E+02  0.42768107825E+01 -0.35418352350E+03  0.39509178324E+03  0.17300000000E+03 0.  1.
         -6    1    1    2    0  502 -0.26537855055E+02 -0.42768107825E+01 -0.35593455852E+03  0.39666227299E+03  0.17300000000E+03 0.  1.
<mgrwt>
<rscale>  2 0.17507584E+03</rscale>
<asrwt>0</asrwt>
<pdfrwt beam="1">  1       21 0.62796907E-02 0.17507584E+03</pdfrwt>
<pdfrwt beam="2">  1       21 0.11552862E+00 0.17507584E+03</pdfrwt>
<totfact> 0.10651504E+05</totfact>
</mgrwt>
</event>
<event>
 4    1  0.4349106E+000  0.1898112E+03  0.7546771E-02  0.1158632E+00
         21   -1    0    0  501  502  0.00000000000E+00  0.00000000000E+00  0.74735380645E+02  0.74735380645E+02  0.00000000000E+00 0.  1.
         21   -1    0    0  502  503 -0.00000000000E+00 -0.00000000000E+00 -0.50531938569E+03  0.50531938569E+03  0.00000000000E+00 0.  1.
          6    1    1    2  501    0 -0.23375148613E+02 -0.74517752456E+02 -0.15309266467E+03  0.24385581186E+03  0.17300000000E+03 0. -1.
         -6    1    1    2    0  503  0.23375148613E+02  0.74517752456E+02 -0.27749134037E+03  0.33619895447E+03  0.17300000000E+03 0. -1.
<mgrwt>
<rscale>  2 0.18981120E+03</rscale>
<asrwt>0</asrwt>
<pdfrwt beam="1">  1       21 0.11497750E-01 0.18981120E+03</pdfrwt>
<pdfrwt beam="2">  1       21 0.77741447E-01 0.18981120E+03</pdfrwt>
<totfact> 0.93030508E+04</totfact>
</mgrwt>
</event>
<event>
 4    1  0.4349106E+000  0.1738486E+03  0.7546771E-02  0.1173893E+00
         21   -1    0    0  501  502  0.00000000000E+00  0.00000000000E+00  0.34105116423E+03  0.34105116423E+03  0.00000000000E+00 0.  1.
         21   -1    0    0  502  503 -0.00000000000E+00 -0.00000000000E+00 -0.99130546994E+02  0.99130546994E+02  0.00000000000E+00 0.  1.
          6    1    1    2  501    0  0.13047114805E+02  0.11139711800E+02  0.19263227114E+03  0.25948123683E+03  0.17300000000E+03 0.  1.
         -6    1    1    2    0  503 -0.13047114805E+02 -0.11139711800E+02  0.49288346092E+02  0.18070047439E+03  0.17300000000E+03 0.  1.
<mgrwt>
<rscale>  2 0.17384856E+03</rscale>
<asrwt>0</asrwt>
<pdfrwt beam="1">  1       21 0.52469409E-01 0.17384856E+03</pdfrwt>
<pdfrwt beam="2">  1       21 0.15250854E-01 0.17384856E+03</pdfrwt>
<totfact> 0.13196965E+05</totfact>
</mgrwt>
</event>
<event>
 4    1  0.4349106E+000  0.2003095E+03  0.7546771E-02  0.1149478E+00
         21   -1    0    0  503  502  0.00000000000E+00  0.00000000000E+00  0.23267187130E+03  0.23267187130E+03  0.00000000000E+00 0.  1.
         21   -1    0    0  501  503 -0.00000000000E+00 -0.00000000000E+00 -0.17272491518E+03  0.17272491518E+03  0.00000000000E+00 0.  1.
          6    1    1    2  501    0  0.41653919250E+02  0.91977445461E+02  0.21863738954E+02  0.20149918745E+03  0.17300000000E+03 0.  1.
         -6    1    1    2    0  502 -0.41653919250E+02 -0.91977445461E+02  0.38083217162E+02  0.20389759903E+03  0.17300000000E+03 0.  1.
<mgrwt>
<rscale>  2 0.20030951E+03</rscale>
<asrwt>0</asrwt>
<pdfrwt beam="1">  1       21 0.35795672E-01 0.20030951E+03</pdfrwt>
<pdfrwt beam="2">  1       21 0.26573064E-01 0.20030951E+03</pdfrwt>
<totfact> 0.10110355E+05</totfact>
</mgrwt>
</event>
<event>
 4    1  0.4349106E+000  0.1756712E+03  0.7546771E-02  0.1172059E+00
         21   -1    0    0  503  502  0.00000000000E+00  0.00000000000E+00  0.28316117602E+02  0.28316117602E+02  0.00000000000E+00 0. -1.
         21   -1    0    0  501  503 -0.00000000000E+00 -0.00000000000E+00 -0.15112427282E+04  0.15112427282E+04  0.00000000000E+00 0. -1.
          6    1    1    2  501    0  0.26093607552E+02 -0.15827077289E+02 -0.11479457168E+04  0.11613094943E+04  0.17300000000E+03 0. -1.
         -6    1    1    2    0  502 -0.26093607552E+02  0.15827077289E+02 -0.33498089375E+03  0.37824935150E+03  0.17300000000E+03 0. -1.
<mgrwt>
<rscale>  2 0.17567121E+03</rscale>
<asrwt>0</asrwt>
<pdfrwt beam="1">  1       21 0.43563270E-02 0.17567121E+03</pdfrwt>
<pdfrwt beam="2">  1       21 0.23249882E+00 0.17567121E+03</pdfrwt>
<totfact> 0.29078373E+04</totfact>
</mgrwt>
</event>
<event>
 4    1  0.4349106E+000  0.2315344E+03  0.7546771E-02  0.1125564E+00
         21   -1    0    0  501  502  0.00000000000E+00  0.00000000000E+00  0.32519582125E+02  0.32519582125E+02  0.00000000000E+00 0. -1.
         21   -1    0    0  502  503 -0.00000000000E+00 -0.00000000000E+00 -0.17039707100E+04  0.17039707100E+04  0.00000000000E+00 0. -1.
          6    1    1    2  501    0 -0.49245040205E+02 -0.14578787415E+03 -0.67905563711E+03  0.71744319394E+03  0.17300000000E+03 0. -1.
         -6    1    1    2    0  503  0.49245040205E+02  0.14578787415E+03 -0.99239549075E+03  0.10190470982E+04  0.17300000000E+03 0. -1.
<mgrwt>
<rscale>  2 0.23153440E+03</rscale>
<asrwt>0</asrwt>
<pdfrwt beam="1">  1       21 0.50030119E-02 0.23153440E+03</pdfrwt>
<pdfrwt beam="2">  1       21 0.26214938E+00 0.23153440E+03</pdfrwt>
<totfact> 0.14661797E+04</totfact>
</mgrwt>
</event>
<event>
 4    1  0.4349106E+000  0.2675509E+03  0.7546771E-02  0.1102690E+00
         21   -1    0    0  501  502  0.00000000000E+00  0.00000000000E+00  0.43307690629E+03  0.43307690629E+03  0.00000000000E+00 0. -1.
         21   -1    0    0  502  503 -0.00000000000E+00 -0.00000000000E+00 -0.21160179035E+03  0.21160179035E+03  0.00000000000E+00 0.  1.
          6    1    1    2  501    0  0.11768408431E+03 -0.16674814093E+03  0.26153612938E+03  0.37414520333E+03  0.17300000000E+03 0. -1.
         -6    1    1    2    0  503 -0.11768408431E+03  0.16674814093E+03 -0.40061013439E+02  0.27053349331E+03  0.17300000000E+03 0.  1.
<mgrwt>
<rscale>  2 0.26755090E+03</rscale>
<asrwt>0</asrwt>
<pdfrwt beam="1">  1       21 0.66627216E-01 0.26755090E+03</pdfrwt>
<pdfrwt beam="2">  1       21 0.32554122E-01 0.26755090E+03</pdfrwt>
<totfact> 0.18010085E+04</totfact>
</mgrwt>
</event>
<event>
 4    1  0.4349106E+000  0.1983332E+03  0.7546771E-02  0.1151153E+00
         21   -1    0    0  501  502  0.00000000000E+00  0.00000000000E+00  0.55557322051E+03  0.55557322051E+03  0.00000000000E+00 0.  1.
         21   -1    0    0  502  503 -0.00000000000E+00 -0.00000000000E+00 -0.79683890833E+02  0.79683890833E+02  0.00000000000E+00 0.  1.
          6    1    1    2  501    0  0.69982954576E+02  0.67152258541E+02  0.34398517892E+03  0.39706654742E+03  0.17300000000E+03 0.  1.
         -6    1    1    2    0  503 -0.69982954576E+02 -0.67152258541E+02  0.13190415076E+03  0.23819056393E+03  0.17300000000E+03 0.  1.
<mgrwt>
<rscale>  2 0.19833315E+03</rscale>
<asrwt>0</asrwt>
<pdfrwt beam="1">  1       21 0.85472800E-01 0.19833315E+03</pdfrwt>
<pdfrwt beam="2">  1       21 0.12259061E-01 0.19833315E+03</pdfrwt>
<totfact> 0.66646460E+04</totfact>
</mgrwt>
</event>
<event>
 4    1  0.4349106E+000  0.1948685E+03  0.7546771E-02  0.1154142E+00
         21   -1    0    0  503  502  0.00000000000E+00  0.00000000000E+00  0.41600607069E+03  0.41600607069E+03  0.00000000000E+00 0.  1.
         21   -1    0    0  501  503 -0.00000000000E+00 -0.00000000000E+00 -0.17423855922E+03  0.17423855922E+03  0.00000000000E+00 0.  1.
          6    1    1    2  501    0  0.34803708222E+02  0.82664472323E+02 -0.82753033847E+02  0.21171154362E+03  0.17300000000E+03 0.  1.
         -6    1    1    2    0  502 -0.34803708222E+02 -0.82664472323E+02  0.32452054531E+03  0.37853308629E+03  0.17300000000E+03 0.  1.
<mgrwt>
<rscale>  2 0.19486845E+03</rscale>
<asrwt>0</asrwt>
<pdfrwt beam="1">  1       21 0.64000934E-01 0.19486845E+03</pdfrwt>
<pdfrwt beam="2">  1       21 0.26805932E-01 0.19486845E+03</pdfrwt>
<totfact> 0.29836014E+04</totfact>
</mgrwt>
</event>
<event>
 4    1  0.4349106E+000  0.2550981E+03  0.7546771E-02  0.1110125E+00
         21   -1    0    0  503  502  0.00000000000E+00  0.00000000000E+00  0.61654797741E+03  0.61654797741E+03  0.00000000000E+00 0.  1.
         21   -1    0    0  501  503 -0.00000000000E+00 -0.00000000000E+00 -0.10664425333E+03  0.10664425333E+03  0.00000000000E+00 0. -1.
          6    1    1    2  501    0 -0.13278059530E+03 -0.13234567374E+03  0.21828106403E+03  0.33574050510E+03  0.17300000000E+03 0.  1.
         -6    1    1    2    0  502  0.13278059530E+03  0.13234567374E+03  0.29162266005E+03  0.38745172564E+03  0.17300000000E+03 0. -1.
<mgrwt>
<rscale>  2 0.25509815E+03</rscale>
<asrwt>0</asrwt>
<pdfrwt beam="1">  1       21 0.94853533E-01 0.25509815E+03</pdfrwt>
<pdfrwt beam="2">  1       21 0.16406809E-01 0.25509815E+03</pdfrwt>
<totfact> 0.29984980E+04</totfact>
</mgrwt>
</event>
<event>
 4    1  0.4349106E+000  0.1920750E+03  0.7546771E-02  0.1156603E+00
         21   -1    0    0  501  502  0.00000000000E+00  0.00000000000E+00  0.25999485845E+03  0.25999485845E+03  0.00000000000E+00 0. -1.
         21   -1    0    0  502  503 -0.00000000000E+00 -0.00000000000E+00 -0.14661191335E+03  0.14661191335E+03  0.00000000000E+00 0.  1.
          6    1    1    2  501    0 -0.25667746896E+02 -0.79403934068E+02  0.20238008043E+02  0.19313827934E+03  0.17300000000E+03 0.  1.
         -6    1    1    2    0  503  0.25667746896E+02  0.79403934068E+02  0.93144937053E+02  0.21346849246E+03  0.17300000000E+03 0.  1.
<mgrwt>
<rscale>  2 0.19207503E+03</rscale>
<asrwt>0</asrwt>
<pdfrwt beam="1">  1       21 0.39999209E-01 0.19207503E+03</pdfrwt>
<pdfrwt beam="2">  1       21 0.22555679E-01 0.19207503E+03</pdfrwt>
<totfact> 0.11095993E+05</totfact>
</mgrwt>
</event>
<event>
 4    1  0.4349106E+000  0.3255789E+03  0.7546771E-02  0.1073110E+00
         21   -1    0    0  501  502  0.00000000000E+00  0.00000000000E+00  0.17313542292E+03  0.17313542292E+03  0.00000000000E+00 0. -1.
         21   -1    0    0  502  503 -0.00000000000E+00 -0.00000000000E+00 -0.73149729776E+03  0.73149729776E+03  0.00000000000E+00 0.  1.
          6    1    1    2  501    0 -0.27204582899E+03  0.45427829780E+02 -0.96553550137E+02  0.33959418257E+03  0.17300000000E+03 0. -1.
         -6    1    1    2    0  503  0.27204582899E+03 -0.45427829780E+02 -0.46180832470E+03  0.56503853811E+03  0.17300000000E+03 0. -1.
<mgrwt>
<rscale>  2 0.32557890E+03</rscale>
<asrwt>0</asrwt>
<pdfrwt beam="1">  1       21 0.26636219E-01 0.32557890E+03</pdfrwt>
<pdfrwt beam="2">  1       21 0.11253804E+00 0.32557890E+03</pdfrwt>
<totfact> 0.76734263E+03</totfact>
</mgrwt>
</event>
<event>
 4    1  0.4349106E+000  0.1730495E+03  0.7546771E-02  0.1174705E+00
         21   -1    0    0  503  502  0.00000000000E+00  0.00000000000E+00  0.40573343945E+02  0.40573343945E+02  0.00000000000E+00 0. -1.
         21   -1    0    0  501  503 -0.00000000000E+00 -0.00000000000E+00 -0.75898342218E+03  0.75898342218E+03  0.00000000000E+00 0. -1.
          6    1    1    2  501    0  0.31913468280E+01  0.26324532720E+01 -0.42556073532E+03  0.45939966691E+03  0.17300000000E+03 0.  1.
         -6    1    1    2    0  502 -0.31913468280E+01 -0.26324532720E+01 -0.29284934291E+03  0.34015709922E+03  0.17300000000E+03 0.  1.
<mgrwt>
<rscale>  2 0.17304946E+03</rscale>
<asrwt>0</asrwt>
<pdfrwt beam="1">  1       21 0.62420535E-02 0.17304946E+03</pdfrwt>
<pdfrwt beam="2">  1       21 0.11676667E+00 0.17304946E+03</pdfrwt>
<totfact> 0.10495443E+05</totfact>
</mgrwt>
</event>
<event>
 4    1  0.4349106E+000  0.2788890E+03  0.7546771E-02  0.1096297E+00
         21   -1    0    0  503  502  0.00000000000E+00  0.00000000000E+00  0.96901488005E+02  0.96901488005E+02  0.00000000000E+00 0.  1.
         21   -1    0    0  501  503 -0.00000000000E+00 -0.00000000000E+00 -0.95343215418E+03  0.95343215418E+03  0.00000000000E+00 0.  1.
          6    1    1    2  501    0 -0.72204782766E+02  0.20648613354E+03 -0.63710422647E+03  0.69547167404E+03  0.17300000000E+03 0.  1.
         -6    1    1    2    0  502  0.72204782766E+02 -0.20648613354E+03 -0.21942643970E+03  0.35486196815E+03  0.17300000000E+03 0.  1.
<mgrwt>
<rscale>  2 0.27888896E+03</rscale>
<asrwt>0</asrwt>
<pdfrwt beam="1">  1       21 0.14907921E-01 0.27888896E+03</pdfrwt>
<pdfrwt beam="2">  1       21 0.14668187E+00 0.27888896E+03</pdfrwt>
<totfact> 0.11916494E+04</totfact>
</mgrwt>
</event>
<event>
 4    1  0.4349106E+000  0.1847966E+03  0.7546771E-02  0.1163240E+00
         21   -1    0    0  503  502  0.00000000000E+00  0.00000000000E+00  0.28842796053E+02  0.28842796053E+02  0.00000000000E+00 0.  1.
         21   -1    0    0  501  503 -0.00000000000E+00 -0.00000000000E+00 -0.11947778437E+04  0.11947778437E+04  0.00000000000E+00 0.  1.
          6    1    1    2  501    0 -0.77557503417E+01 -0.64502820037E+02 -0.64108577552E+03  0.66718868173E+03  0.17300000000E+03 0.  1.
         -6    1    1    2    0  502  0.77557503417E+01  0.64502820037E+02 -0.52484927212E+03  0.55643195801E+03  0.17300000000E+03 0.  1.
<mgrwt>
<rscale>  2 0.18479655E+03</rscale>
<asrwt>0</asrwt>
<pdfrwt beam="1">  1       21 0.44373536E-02 0.18479655E+03</pdfrwt>
<pdfrwt beam="2">  1       21 0.18381196E+00 0.18479655E+03</pdfrwt>
<totfact> 0.56707587E+04</totfact>
</mgrwt>
</event>
<event>
 4    1  0.4349106E+000  0.2915423E+03  0.7546771E-02  0.1089547E+00
         21   -1    0    0  503  502  0.00000000000E+00  0.00000000000E+00  0.19315422964E+04  0.19315422964E+04  0.00000000000E+00 0. -1.
         21   -1    0    0  501  503 -0.00000000000E+00 -0.00000000000E+00 -0.12229056477E+03  0.12229056477E+03  0.00000000000E+00 0. -1.
          6    1    1    2  501    0  0.14935482072E+03  0.18100015476E+03  0.82988212052E+02  0.30312367416E+03  0.17300000000E+03 0. -1.
         -6    1    1    2    0  502 -0.14935482072E+03 -0.18100015476E+03  0.17262635196E+04  0.17507091870E+04  0.17300000000E+03 0. -1.
<mgrwt>
<rscale>  2 0.29154231E+03</rscale>
<asrwt>0</asrwt>
<pdfrwt beam="1">  1       21 0.29716033E+00 0.29154231E+03</pdfrwt>
<pdfrwt beam="2">  1       21 0.18813934E-01 0.29154231E+03</pdfrwt>
<totfact> 0.82229249E+02</totfact>
</mgrwt>
</event>
<event>
 4    1  0.4349106E+000  0.1888980E+03  0.7546771E-02  0.1159459E+00
         21   -1    0    0  503  502  0.00000000000E+00  0.00000000000E+00  0.17248434001E+02  0.17248434001E+02  0.00000000000E+00 0.  1.
         21   -1    0    0  501  503 -0.00000000000E+00 -0.00000000000E+00 -0.21990018531E+04  0.21990018531E+04  0.00000000000E+00 0.  1.
          6    1    1    2  501    0 -0.26492615123E+02 -0.71074512459E+02 -0.13605838259E+04  0.13736341552E+04  0.17300000000E+03 0.  1.
         -6    1    1    2    0  502  0.26492615123E+02  0.71074512459E+02 -0.82116959316E+03  0.84261613188E+03  0.17300000000E+03 0.  1.
<mgrwt>
<rscale>  2 0.18889798E+03</rscale>
<asrwt>0</asrwt>
<pdfrwt beam="1">  1       21 0.26536036E-02 0.18889798E+03</pdfrwt>
<pdfrwt beam="2">  1       21 0.33830819E+00 0.18889798E+03</pdfrwt>
<totfact> 0.15937182E+04</totfact>
</mgrwt>
</event>
<event>
 4    1  0.4349106E+000  0.1774448E+03  0.7546771E-02  0.1170299E+00
         21   -1    0    0  501  502  0.00000000000E+00  0.00000000000E+00  0.14072677612E+04  0.14072677612E+04  0.00000000000E+00 0. -1.
         21   -1    0    0  502  503 -0.00000000000E+00 -0.00000000000E+00 -0.17630523882E+03  0.17630523882E+03  0.00000000000E+00 0. -1.
          6    1    1    2  501    0 -0.17905497745E+02  0.35171856065E+02  0.13553222829E+04  0.13668888605E+04  0.17300000000E+03 0. -1.
         -6    1    1    2    0  503  0.17905497745E+02 -0.35171856065E+02 -0.12435976052E+03  0.21668413958E+03  0.17300000000E+03 0. -1.
<mgrwt>
<rscale>  2 0.17744483E+03</rscale>
<asrwt>0</asrwt>
<pdfrwt beam="1">  1       21 0.21650273E+00 0.17744483E+03</pdfrwt>
<pdfrwt beam="2">  1       21 0.27123884E-01 0.17744483E+03</pdfrwt>
<totfact> 0.13938835E+03</totfact>
</mgrwt>
</event>
<event>
 4    1  0.4349106E+000  0.2608704E+03  0.7546771E-02  0.1106621E+00
         21   -1    0    0  503  502  0.00000000000E+00  0.00000000000E+00  0.54438201032E+02  0.54438201032E+02  0.00000000000E+00 0. -1.
         21   -1    0    0  501  503 -0.00000000000E+00 -0.00000000000E+00 -0.16433959917E+04  0.16433959917E+04  0.00000000000E+00 0.  1.
          6    1    1    2  501    0  0.13055769768E+03 -0.14518633641E+03 -0.12097694039E+04  0.12375764200E+04  0.17300000000E+03 0.  1.
         -6    1    1    2    0  502 -0.13055769768E+03  0.14518633641E+03 -0.37918838671E+03  0.46025777269E+03  0.17300000000E+03 0. -1.
<mgrwt>
<rscale>  2 0.26087044E+03</rscale>
<asrwt>0</asrwt>
<pdfrwt beam="1">  1       21 0.83751083E-02 0.26087044E+03</pdfrwt>
<pdfrwt beam="2">  1       21 0.25283014E+00 0.26087044E+03</pdfrwt>
<totfact> 0.66787336E+03</totfact>
</mgrwt>
</event>
<event>
 4    1  0.4349106E+000  0.2458079E+03  0.7546771E-02  0.1115983E+00
         21   -1    0    0  503  502  0.00000000000E+00  0.00000000000E+00  0.21660520945E+04  0.21660520945E+04  0.00000000000E+00 0. -1.
         21   -1    0    0  501  503 -0.00000000000E+00 -0.00000000000E+00 -0.35952551326E+02  0.35952551326E+02  0.00000000000E+00 0. -1.
          6    1    1    2  501    0 -0.16879310459E+03 -0.44736974848E+02  0.54381747899E+03  0.59679054913E+03  0.17300000000E+03 0. -1.
         -6    1    1    2    0  502  0.16879310459E+03  0.44736974848E+02  0.15862820641E+04  0.16052140967E+04  0.17300000000E+03 0. -1.
<mgrwt>
<rscale>  2 0.24580787E+03</rscale>
<asrwt>0</asrwt>
<pdfrwt beam="1">  1       21 0.33323868E+00 0.24580787E+03</pdfrwt>
<pdfrwt beam="2">  1       21 0.55311634E-02 0.24580787E+03</pdfrwt>
<totfact> 0.46848149E+03</totfact>
</mgrwt>
</event>
<event>
 4    1  0.4349106E+000  0.1842019E+03  0.7546771E-02  0.1163797E+00
         21   -1    0    0  501  502  0.00000000000E+00  0.00000000000E+00  0.40493746130E+03  0.40493746130E+03  0.00000000000E+00 0.  1.
         21   -1    0    0  502  503 -0.00000000000E+00 -0.00000000000E+00 -0.13121904697E+03  0.13121904697E+03  0.00000000000E+00 0.  1.
          6    1    1    2  501    0  0.36838708455E+02 -0.51422197785E+02  0.29802701626E+03  0.35035758203E+03  0.17300000000E+03 0.  1.
         -6    1    1    2    0  503 -0.36838708455E+02  0.51422197785E+02 -0.24308601922E+02  0.18579892624E+03  0.17300000000E+03 0.  1.
<mgrwt>
<rscale>  2 0.18420188E+03</rscale>
<asrwt>0</asrwt>
<pdfrwt beam="1">  1       21 0.62298070E-01 0.18420188E+03</pdfrwt>
<pdfrwt beam="2">  1       21 0.20187546E-01 0.18420188E+03</pdfrwt>
<totfact> 0.54419265E+04</totfact>
</mgrwt>
</event>
<event>
 4    1  0.4349106E+000  0.1785351E+03  0.7546771E-02  0.1169228E+00
         21   -1    0    0  503  502  0.00000000000E+00  0.00000000000E+00  0.52385392982E+02  0.52385392982E+02  0.00000000000E+00 0. -1.
         21   -1    0    0  501  503 -0.00000000000E+00 -0.00000000000E+00 -0.61343432932E+03  0.61343432932E+03  0.00000000000E+00 0. -1.
          6    1    1    2  501    0  0.43823957709E+02 -0.50227837257E+01 -0.25056618967E+03  0.30766570012E+03  0.17300000000E+03 0. -1.
         -6    1    1    2    0  502 -0.43823957709E+02  0.50227837257E+01 -0.31048274667E+03  0.35815402218E+03  0.17300000000E+03 0. -1.
<mgrwt>
<rscale>  2 0.17853506E+03</rscale>
<asrwt>0</asrwt>
<pdfrwt beam="1">  1       21 0.80592917E-02 0.17853506E+03</pdfrwt>
<pdfrwt beam="2">  1       21 0.94374507E-01 0.17853506E+03</pdfrwt>
<totfact> 0.11207216E+05</totfact>
</mgrwt>
</event>
<event>
 4    1  0.4349106E+000  0.2728544E+03  0.7546771E-02  0.1099657E+00
         21   -1    0    0  501  502  0.00000000000E+00  0.00000000000E+00  0.13358585534E+03  0.13358585534E+03  0.00000000000E+00 0. -1.
         21   -1    0    0  502  503 -0.00000000000E+00 -0.00000000000E+00 -0.55803690837E+03  0.55803690837E+03  0.00000000000E+00 0. -1.
          6    1    1    2  501    0  0.20544569888E+03 -0.48089589124E+02 -0.22465426548E+03  0.35343893783E+03  0.17300000000E+03 0. -1.
         -6    1    1    2    0  503 -0.20544569888E+03  0.48089589124E+02 -0.19979678755E+03  0.33818382588E+03  0.17300000000E+03 0. -1.
<mgrwt>
<rscale>  2 0.27285444E+03</rscale>
<asrwt>0</asrwt>
<pdfrwt beam="1">  1       21 0.20551670E-01 0.27285444E+03</pdfrwt>
<pdfrwt beam="2">  1       21 0.85851832E-01 0.27285444E+03</pdfrwt>
<totfact> 0.24666691E+04</totfact>
</mgrwt>
</event>
<event>
 4    1  0.4349106E+000  0.2122136E+03  0.7546771E-02  0.1139825E+00
         21   -1    0    0  503  502  0.00000000000E+00  0.00000000000E+00  0.72049763424E+02  0.72049763424E+02  0.00000000000E+00 0. -1.
         21   -1    0    0  501  503 -0.00000000000E+00 -0.00000000000E+00 -0.72791490768E+03  0.72791490768E+03  0.00000000000E+00 0. -1.
          6    1    1    2  501    0 -0.98919424149E+02  0.72942258886E+02 -0.47829399980E+03  0.52325880389E+03  0.17300000000E+03 0. -1.
         -6    1    1    2    0  502  0.98919424149E+02 -0.72942258886E+02 -0.17757114445E+03  0.27670586721E+03  0.17300000000E+03 0. -1.
<mgrwt>
<rscale>  2 0.21221363E+03</rscale>
<asrwt>0</asrwt>
<pdfrwt beam="1">  1       21 0.11084579E-01 0.21221363E+03</pdfrwt>
<pdfrwt beam="2">  1       21 0.11198691E+00 0.21221363E+03</pdfrwt>
<totfact> 0.41837552E+04</totfact>
</mgrwt>
</event>
<event>
 4    1  0.4349106E+000  0.1965033E+03  0.7546771E-02  0.1152723E+00
         21   -1    0    0  501  502  0.00000000000E+00  0.00000000000E+00  0.20506618450E+03  0.20506618450E+03  0.00000000000E+00 0. -1.
         21   -1    0    0  502  503 -0.00000000000E+00 -0.00000000000E+00 -0.19710495092E+03  0.19710495092E+03  0.00000000000E+00 0. -1.
          6    1    1    2  501    0 -0.93185545203E+02  0.10058403933E+01 -0.38524802555E+02  0.20024414589E+03  0.17300000000E+03 0. -1.
         -6    1    1    2    0  503  0.93185545203E+02 -0.10058403933E+01  0.46486036133E+02  0.20192698954E+03  0.17300000000E+03 0. -1.
<mgrwt>
<rscale>  2 0.19650333E+03</rscale>
<asrwt>0</asrwt>
<pdfrwt beam="1">  1       21 0.31548644E-01 0.19650333E+03</pdfrwt>
<pdfrwt beam="2">  1       21 0.30323838E-01 0.19650333E+03</pdfrwt>
<totfact> 0.10062959E+05</totfact>
</mgrwt>
</event>
<event>
 4    1  0.4349106E+000  0.2768980E+03  0.7546771E-02  0.1097395E+00
         21   -1    0    0  501  502  0.00000000000E+00  0.00000000000E+00  0.26200685927E+03  0.26200685927E+03  0.00000000000E+00 0. -1.
         21   -1    0    0  502  503 -0.00000000000E+00 -0.00000000000E+00 -0.29916114510E+03  0.29916114510E+03  0.00000000000E+00 0.  1.
          6    1    1    2  501    0  0.16072643749E+03 -0.14460462051E+03  0.22863369957E+02  0.27784027366E+03  0.17300000000E+03 0. -1.
         -6    1    1    2    0  503 -0.16072643749E+03  0.14460462051E+03 -0.60017655792E+02  0.28332773071E+03  0.17300000000E+03 0. -1.
<mgrwt>
<rscale>  2 0.27689797E+03</rscale>
<asrwt>0</asrwt>
<pdfrwt beam="1">  1       21 0.40308748E-01 0.27689797E+03</pdfrwt>
<pdfrwt beam="2">  1       21 0.46024792E-01 0.27689797E+03</pdfrwt>
<totfact> 0.25748232E+04</totfact>
</mgrwt>
</event>
<event>
 4    1  0.4349106E+000  0.1781245E+03  0.7546771E-02  0.1169631E+00
         21   -1    0    0  503  502  0.00000000000E+00  0.00000000000E+00  0.55152879007E+02  0.55152879007E+02  0.00000000000E+00 0.  1.
         21   -1    0    0  501  503 -0.00000000000E+00 -0.00000000000E+00 -0.79601121708E+03  0.79601121708E+03  0.00000000000E+00 0.  1.
          6    1    1    2  501    0 -0.26187439120E+02  0.33370063330E+02 -0.14632203742E+03  0.23051785555E+03  0.17300000000E+03 0.  1.
         -6    1    1    2    0  502  0.26187439120E+02 -0.33370063330E+02 -0.59453630065E+03  0.62064624053E+03  0.17300000000E+03 0.  1.
<mgrwt>
<rscale>  2 0.17812452E+03</rscale>
<asrwt>0</asrwt>
<pdfrwt beam="1">  1       21 0.84850590E-02 0.17812452E+03</pdfrwt>
<pdfrwt beam="2">  1       21 0.12246325E+00 0.17812452E+03</pdfrwt>
<totfact> 0.54779941E+04</totfact>
</mgrwt>
</event>
<event>
 4    1  0.4349106E+000  0.2256972E+03  0.7546771E-02  0.1129705E+00
         21   -1    0    0  501  502  0.00000000000E+00  0.00000000000E+00  0.13313730611E+04  0.13313730611E+04  0.00000000000E+00 0. -1.
         21   -1    0    0  502  503 -0.00000000000E+00 -0.00000000000E+00 -0.38394581988E+02  0.38394581988E+02  0.00000000000E+00 0.  1.
          6    1    1    2  501    0 -0.73773081821E+02  0.12477085881E+03  0.60604281591E+03  0.64670482411E+03  0.17300000000E+03 0.  1.
         -6    1    1    2    0  503  0.73773081821E+02 -0.12477085881E+03  0.68693566316E+03  0.72306281894E+03  0.17300000000E+03 0. -1.
<mgrwt>
<rscale>  2 0.22569722E+03</rscale>
<asrwt>0</asrwt>
<pdfrwt beam="1">  1       21 0.20482659E+00 0.22569722E+03</pdfrwt>
<pdfrwt beam="2">  1       21 0.59068598E-02 0.22569722E+03</pdfrwt>
<totfact> 0.24743546E+04</totfact>
</mgrwt>
</event>
<event>
 4    1  0.4349106E+000  0.2238749E+03  0.7546771E-02  0.1131027E+00
         21   -1    0    0  501  502  0.00000000000E+00  0.00000000000E+00  0.17617842320E+03  0.17617842320E+03  0.00000000000E+00 0.  1.
         21   -1    0    0  502  503 -0.00000000000E+00 -0.00000000000E+00 -0.61060517766E+03  0.61060517766E+03  0.00000000000E+00 0. -1.
          6    1    1    2  501    0 -0.63755398249E+02  0.12698902757E+03  0.70284394112E+02  0.23464837520E+03  0.17300000000E+03 0.  1.
         -6    1    1    2    0  503  0.63755398249E+02 -0.12698902757E+03 -0.50471114857E+03  0.55213522566E+03  0.17300000000E+03 0. -1.
<mgrwt>
<rscale>  2 0.22387488E+03</rscale>
<asrwt>0</asrwt>
<pdfrwt beam="1">  1       21 0.27104373E-01 0.22387488E+03</pdfrwt>
<pdfrwt beam="2">  1       21 0.93939258E-01 0.22387488E+03</pdfrwt>
<totfact> 0.12088516E+04</totfact>
</mgrwt>
</event>
<event>
 4    1  0.4349106E+000  0.1884602E+03  0.7546771E-02  0.1159858E+00
         21   -1    0    0  503  502  0.00000000000E+00  0.00000000000E+00  0.26095306747E+03  0.26095306747E+03  0.00000000000E+00 0. -1.
         21   -1    0    0  501  503 -0.00000000000E+00 -0.00000000000E+00 -0.41234241092E+03  0.41234241092E+03  0.00000000000E+00 0. -1.
          6    1    1    2  501    0 -0.74357546700E+02 -0.76941211494E+01 -0.35123632693E+03  0.39860281184E+03  0.17300000000E+03 0. -1.
         -6    1    1    2    0  502  0.74357546700E+02  0.76941211494E+01  0.19984698348E+03  0.27469266655E+03  0.17300000000E+03 0. -1.
<mgrwt>
<rscale>  2 0.18846019E+03</rscale>
<asrwt>0</asrwt>
<pdfrwt beam="1">  1       21 0.40146626E-01 0.18846019E+03</pdfrwt>
<pdfrwt beam="2">  1       21 0.63437294E-01 0.18846019E+03</pdfrwt>
<totfact> 0.13776036E+04</totfact>
</mgrwt>
</event>
<event>
 4    1  0.4349106E+000  0.1817683E+03  0.7546771E-02  0.1166103E+00
         21   -1    0    0  501  502  0.00000000000E+00  0.00000000000E+00  0.14885061802E+03  0.14885061802E+03  0.00000000000E+00 0. -1.
         21   -1    0    0  502  503 -0.00000000000E+00 -0.00000000000E+00 -0.23721299863E+03  0.23721299863E+03  0.00000000000E+00 0. -1.
          6    1    1    2  501    0  0.39793146304E+02 -0.39079667752E+02 -0.93120483009E+02  0.20423305139E+03  0.17300000000E+03 0. -1.
         -6    1    1    2    0  503 -0.39793146304E+02  0.39079667752E+02  0.47581023912E+01  0.18183056526E+03  0.17300000000E+03 0. -1.
<mgrwt>
<rscale>  2 0.18176830E+03</rscale>
<asrwt>0</asrwt>
<pdfrwt beam="1">  1       21 0.22900095E-01 0.18176830E+03</pdfrwt>
<pdfrwt beam="2">  1       21 0.36494307E-01 0.18176830E+03</pdfrwt>
<totfact> 0.13006258E+05</totfact>
</mgrwt>
</event>
<event>
 4    1  0.4349106E+000  0.1871837E+03  0.7546771E-02  0.1161026E+00
         21   -1    0    0  503  502  0.00000000000E+00  0.00000000000E+00  0.76369862410E+02  0.76369862410E+02  0.00000000000E+00 0. -1.
         21   -1    0    0  501  503 -0.00000000000E+00 -0.00000000000E+00 -0.64083227916E+03  0.64083227916E+03  0.00000000000E+00 0. -1.
          6    1    1    2  501    0  0.33667488759E+02 -0.63049634225E+02 -0.47335955493E+03  0.50902556362E+03  0.17300000000E+03 0. -1.
         -6    1    1    2    0  502 -0.33667488759E+02  0.63049634225E+02 -0.91102861820E+02  0.20817657795E+03  0.17300000000E+03 0. -1.
<mgrwt>
<rscale>  2 0.18718375E+03</rscale>
<asrwt>0</asrwt>
<pdfrwt beam="1">  1       21 0.11749209E-01 0.18718375E+03</pdfrwt>
<pdfrwt beam="2">  1       21 0.98589583E-01 0.18718375E+03</pdfrwt>
<totfact> 0.51877545E+04</totfact>
</mgrwt>
</event>
<event>
 4    1  0.4349106E+000  0.3935524E+03  0.7546771E-02  0.1046035E+00
         21   -1    0    0  501  502  0.00000000000E+00  0.00000000000E+00  0.40435007146E+03  0.40435007146E+03  0.00000000000E+00 0. -1.
         21   -1    0    0  502  503 -0.00000000000E+00 -0.00000000000E+00 -0.49050862684E+03  0.49050862684E+03  0.00000000000E+00 0.  1.
          6    1    1    2  501    0 -0.26939159096E+03  0.22887256400E+03  0.16634925715E+03  0.42726520474E+03  0.17300000000E+03 0. -1.
         -6    1    1    2    0  503  0.26939159096E+03 -0.22887256400E+03 -0.25250781253E+03  0.46759349356E+03  0.17300000000E+03 0.  1.
<mgrwt>
<rscale>  2 0.39355239E+03</rscale>
<asrwt>0</asrwt>
<pdfrwt beam="1">  1       21 0.62207703E-01 0.39355239E+03</pdfrwt>
<pdfrwt beam="2">  1       21 0.75462866E-01 0.39355239E+03</pdfrwt>
<totfact> 0.33498398E+03</totfact>
</mgrwt>
</event>
<event>
 4    1  0.4349106E+000  0.2474304E+03  0.7546771E-02  0.1114940E+00
         21   -1    0    0  501  502  0.00000000000E+00  0.00000000000E+00  0.17959232513E+03  0.17959232513E+03  0.00000000000E+00 0.  1.
         21   -1    0    0  502  503 -0.00000000000E+00 -0.00000000000E+00 -0.72369610826E+03  0.72369610826E+03  0.00000000000E+00 0.  1.
          6    1    1    2  501    0 -0.64835449165E+02  0.16458791406E+03  0.56425817670E+02  0.25378276108E+03  0.17300000000E+03 0.  1.
         -6    1    1    2    0  503  0.64835449165E+02 -0.16458791406E+03 -0.60052960080E+03  0.64950567231E+03  0.17300000000E+03 0.  1.
<mgrwt>
<rscale>  2 0.24743043E+03</rscale>
<asrwt>0</asrwt>
<pdfrwt beam="1">  1       21 0.27629588E-01 0.24743043E+03</pdfrwt>
<pdfrwt beam="2">  1       21 0.11133786E+00 0.24743043E+03</pdfrwt>
<totfact> 0.76395763E+03</totfact>
</mgrwt>
</event>
<event>
 4    1  0.4349106E+000  0.1755911E+03  0.7546771E-02  0.1172140E+00
         21   -1    0    0  503  502  0.00000000000E+00  0.00000000000E+00  0.24676243043E+03  0.24676243043E+03  0.00000000000E+00 0.  1.
         21   -1    0    0  501  503 -0.00000000000E+00 -0.00000000000E+00 -0.18053740075E+03  0.18053740075E+03  0.00000000000E+00 0.  1.
          6    1    1    2  501    0  0.28897262560E+02  0.82572735527E+01 -0.85442217258E+02  0.19527572005E+03  0.17300000000E+03 0. -1.
         -6    1    1    2    0  502 -0.28897262560E+02 -0.82572735527E+01  0.15166724694E+03  0.23202411113E+03  0.17300000000E+03 0. -1.
<mgrwt>
<rscale>  2 0.17559110E+03</rscale>
<asrwt>0</asrwt>
<pdfrwt beam="1">  1       21 0.37963451E-01 0.17559110E+03</pdfrwt>
<pdfrwt beam="2">  1       21 0.27774985E-01 0.17559110E+03</pdfrwt>
<totfact> 0.83379941E+04</totfact>
</mgrwt>
</event>
<event>
 4    1  0.4349106E+000  0.1734269E+03  0.7546771E-02  0.1174321E+00
         21   -1    0    0  501  502  0.00000000000E+00  0.00000000000E+00  0.11724313448E+03  0.11724313448E+03  0.00000000000E+00 0. -1.
         21   -1    0    0  502  503 -0.00000000000E+00 -0.00000000000E+00 -0.28902974521E+03  0.28902974521E+03  0.00000000000E+00 0. -1.
          6    1    1    2  501    0 -0.57711003231E+01  0.10703628231E+02 -0.17780540989E+02  0.17433594263E+03  0.17300000000E+03 0. -1.
         -6    1    1    2    0  503  0.57711003231E+01 -0.10703628231E+02 -0.15400606974E+03  0.23193693706E+03  0.17300000000E+03 0. -1.
<mgrwt>
<rscale>  2 0.17342685E+03</rscale>
<asrwt>0</asrwt>
<pdfrwt beam="1">  1       21 0.18037405E-01 0.17342685E+03</pdfrwt>
<pdfrwt beam="2">  1       21 0.44466115E-01 0.17342685E+03</pdfrwt>
<totfact> 0.13670822E+05</totfact>
</mgrwt>
</event>
<event>
 4    1  0.4349106E+000  0.2056268E+03  0.7546771E-02  0.1145077E+00
         21   -1    0    0  503  502  0.00000000000E+00  0.00000000000E+00  0.59651560940E+03  0.59651560940E+03  0.00000000000E+00 0.  1.
         21   -1    0    0  501  503 -0.00000000000E+00 -0.00000000000E+00 -0.72002667565E+02  0.72002667565E+02  0.00000000000E+00 0.  1.
          6    1    1    2  501    0  0.72147541031E+02 -0.84546425489E+02  0.22055994564E+03  0.30154445006E+03  0.17300000000E+03 0.  1.
         -6    1    1    2    0  502 -0.72147541031E+02  0.84546425489E+02  0.30395299619E+03  0.36697382691E+03  0.17300000000E+03 0.  1.
<mgrwt>
<rscale>  2 0.20562676E+03</rscale>
<asrwt>0</asrwt>
<pdfrwt beam="1">  1       21 0.91771629E-01 0.20562676E+03</pdfrwt>
<pdfrwt beam="2">  1       21 0.11077334E-01 0.20562676E+03</pdfrwt>
<totfact> 0.67551371E+04</totfact>
</mgrwt>
</event>
<event>
 4    1  0.4349106E+000  0.2095128E+03  0.7546771E-02  0.1141952E+00
         21   -1    0    0  503  502  0.00000000000E+00  0.00000000000E+00  0.35334771375E+03  0.35334771375E+03  0.00000000000E+00 0. -1.
         21   -1    0    0  501  503 -0.00000000000E+00 -0.00000000000E+00 -0.12423495240E+03  0.12423495240E+03  0.00000000000E+00 0. -1.
          6    1    1    2  501    0 -0.11794267456E+03  0.74918138364E+01  0.11637086807E+03  0.23966180482E+03  0.17300000000E+03 0. -1.
         -6    1    1    2    0  502  0.11794267456E+03 -0.74918138364E+01  0.11274189328E+03  0.23792086133E+03  0.17300000000E+03 0. -1.
<mgrwt>
<rscale>  2 0.20951277E+03</rscale>
<asrwt>0</asrwt>
<pdfrwt beam="1">  1       21 0.54361186E-01 0.20951277E+03</pdfrwt>
<pdfrwt beam="2">  1       21 0.19113070E-01 0.20951277E+03</pdfrwt>
<totfact> 0.79731158E+04</totfact>
</mgrwt>
</event>
<event>
 4    1  0.4349106E+000  0.2035472E+03  0.7546771E-02  0.1146780E+00
         21   -1    0    0  501  502  0.00000000000E+00  0.00000000000E+00  0.85198988246E+02  0.85198988246E+02  0.00000000000E+00 0.  1.
         21   -1    0    0  502  503 -0.00000000000E+00 -0.00000000000E+00 -0.89824295554E+03  0.89824295554E+03  0.00000000000E+00 0. -1.
          6    1    1    2  501    0  0.58103647054E+02  0.90146624275E+02 -0.73521060917E+02  0.21641810014E+03  0.17300000000E+03 0.  1.
         -6    1    1    2    0  503 -0.58103647054E+02 -0.90146624275E+02 -0.73952290638E+03  0.76702384365E+03  0.17300000000E+03 0. -1.
<mgrwt>
<rscale>  2 0.20354716E+03</rscale>
<asrwt>0</asrwt>
<pdfrwt beam="1">  1       21 0.13107537E-01 0.20354716E+03</pdfrwt>
<pdfrwt beam="2">  1       21 0.13819122E+00 0.20354716E+03</pdfrwt>
<totfact> 0.18398111E+04</totfact>
</mgrwt>
</event>
<event>
 4    1  0.4349106E+000  0.2023159E+03  0.7546771E-02  0.1147800E+00
         21   -1    0    0  503  502  0.00000000000E+00  0.00000000000E+00  0.56516433281E+02  0.56516433281E+02  0.00000000000E+00 0. -1.
         21   -1    0    0  501  503 -0.00000000000E+00 -0.00000000000E+00 -0.78951359517E+03  0.78951359517E+03  0.00000000000E+00 0.  1.
          6    1    1    2  501    0  0.39938176709E+02  0.96993064414E+02 -0.48812557556E+03  0.52839217445E+03  0.17300000000E+03 0.  1.
         -6    1    1    2    0  502 -0.39938176709E+02 -0.96993064414E+02 -0.24487158632E+03  0.31763785400E+03  0.17300000000E+03 0. -1.
<mgrwt>
<rscale>  2 0.20231587E+03</rscale>
<asrwt>0</asrwt>
<pdfrwt beam="1">  1       21 0.86948356E-02 0.20231587E+03</pdfrwt>
<pdfrwt beam="2">  1       21 0.12146363E+00 0.20231587E+03</pdfrwt>
<totfact> 0.52904159E+04</totfact>
</mgrwt>
</event>
<event>
 4    1  0.4349106E+000  0.1873437E+03  0.7546771E-02  0.1160879E+00
         21   -1    0    0  501  502  0.00000000000E+00  0.00000000000E+00  0.27839317373E+03  0.27839317373E+03  0.00000000000E+00 0.  1.
         21   -1    0    0  502  503 -0.00000000000E+00 -0.00000000000E+00 -0.22227299828E+03  0.22227299828E+03  0.00000000000E+00 0.  1.
          6    1    1    2  501    0  0.60684916196E+02  0.38548739708E+02  0.19274887764E+03  0.26879321833E+03  0.17300000000E+03 0.  1.
         -6    1    1    2    0  503 -0.60684916196E+02 -0.38548739708E+02 -0.13662870220E+03  0.23187295368E+03  0.17300000000E+03 0.  1.
<mgrwt>
<rscale>  2 0.18734371E+03</rscale>
<asrwt>0</asrwt>
<pdfrwt beam="1">  1       21 0.42829719E-01 0.18734371E+03</pdfrwt>
<pdfrwt beam="2">  1       21 0.34195846E-01 0.18734371E+03</pdfrwt>
<totfact> 0.43317245E+04</totfact>
</mgrwt>
</event>
<event>
 4    1  0.4349106E+000  0.3039646E+03  0.7546771E-02  0.1083275E+00
         21   -1    0    0  501  502  0.00000000000E+00  0.00000000000E+00  0.96875703306E+03  0.96875703306E+03  0.00000000000E+00 0.  1.
         21   -1    0    0  502  503 -0.00000000000E+00 -0.00000000000E+00 -0.11478924908E+03  0.11478924908E+03  0.00000000000E+00 0. -1.
          6    1    1    2  501    0  0.14729564949E+03 -0.20191443950E+03  0.64979449456E+03  0.71737530930E+03  0.17300000000E+03 0.  1.
         -6    1    1    2    0  503 -0.14729564949E+03  0.20191443950E+03  0.20417328942E+03  0.36617097284E+03  0.17300000000E+03 0. -1.
<mgrwt>
<rscale>  2 0.30396455E+03</rscale>
<asrwt>0</asrwt>
<pdfrwt beam="1">  1       21 0.14903954E+00 0.30396455E+03</pdfrwt>
<pdfrwt beam="2">  1       21 0.17659885E-01 0.30396455E+03</pdfrwt>
<totfact> 0.82427039E+03</totfact>
</mgrwt>
</event>
<event>
 4    1  0.4349106E+000  0.2029654E+03  0.7546771E-02  0.1147261E+00
         21   -1    0    0  503  502  0.00000000000E+00  0.00000000000E+00  0.18724471609E+03  0.18724471609E+03  0.00000000000E+00 0.  1.
         21   -1    0    0  501  503 -0.00000000000E+00 -0.00000000000E+00 -0.27259375439E+03  0.27259375439E+03  0.00000000000E+00 0.  1.
          6    1    1    2  501    0 -0.70500939266E+02 -0.79344744619E+02 -0.14366011904E+03  0.24866282541E+03  0.17300000000E+03 0.  1.
         -6    1    1    2    0  502  0.70500939266E+02  0.79344744619E+02  0.58311080746E+02  0.21117564508E+03  0.17300000000E+03 0.  1.
<mgrwt>
<rscale>  2 0.20296544E+03</rscale>
<asrwt>0</asrwt>
<pdfrwt beam="1">  1       21 0.28806879E-01 0.20296544E+03</pdfrwt>
<pdfrwt beam="2">  1       21 0.41937501E-01 0.20296544E+03</pdfrwt>
<totfact> 0.62809189E+04</totfact>
</mgrwt>
</event>
<event>
 4    1  0.4349106E+000  0.3237768E+03  0.7546771E-02  0.1073924E+00
         21   -1    0    0  501  502  0.00000000000E+00  0.00000000000E+00  0.10787705105E+04  0.10787705105E+04  0.00000000000E+00 0. -1.
         21   -1    0    0  502  503 -0.00000000000E+00 -0.00000000000E+00 -0.11049794646E+03  0.11049794646E+03  0.00000000000E+00 0.  1.
          6    1    1    2  501    0  0.17169888253E+03  0.21312420130E+03  0.27767238186E+03  0.42653649679E+03  0.17300000000E+03 0.  1.
         -6    1    1    2    0  503 -0.17169888253E+03 -0.21312420130E+03  0.69060018219E+03  0.76273196018E+03  0.17300000000E+03 0. -1.
<mgrwt>
<rscale>  2 0.32377682E+03</rscale>
<asrwt>0</asrwt>
<pdfrwt beam="1">  1       21 0.16596469E+00 0.32377682E+03</pdfrwt>
<pdfrwt beam="2">  1       21 0.16999685E-01 0.32377682E+03</pdfrwt>
<totfact> 0.65320996E+03</totfact>
</mgrwt>
</event>
<event>
 4    1  0.4349106E+000  0.1877951E+03  0.7546771E-02  0.1160465E+00
         21   -1    0    0  503  502  0.00000000000E+00  0.00000000000E+00  0.54176731831E+02  0.54176731831E+02  0.00000000000E+00 0.  1.
         21   -1    0    0  501  503 -0.00000000000E+00 -0.00000000000E+00 -0.66492233456E+03  0.66492233456E+03  0.00000000000E+00 0.  1.
          6    1    1    2  501    0  0.24078502096E+02  0.68979948050E+02 -0.35747034206E+03  0.40379704426E+03  0.17300000000E+03 0.  1.
         -6    1    1    2    0  502 -0.24078502096E+02 -0.68979948050E+02 -0.25327526067E+03  0.31530202213E+03  0.17300000000E+03 0.  1.
<mgrwt>
<rscale>  2 0.18779512E+03</rscale>
<asrwt>0</asrwt>
<pdfrwt beam="1">  1       21 0.83348821E-02 0.18779512E+03</pdfrwt>
<pdfrwt beam="2">  1       21 0.10229574E+00 0.18779512E+03</pdfrwt>
<totfact> 0.87073213E+04</totfact>
</mgrwt>
</event>
<event>
 4    1  0.4349106E+000  0.2080011E+03  0.7546771E-02  0.1143159E+00
         21   -1    0    0  501  502  0.00000000000E+00  0.00000000000E+00  0.58139202891E+03  0.58139202891E+03  0.00000000000E+00 0. -1.
         21   -1    0    0  502  503 -0.00000000000E+00 -0.00000000000E+00 -0.99264716128E+02  0.99264716128E+02  0.00000000000E+00 0. -1.
          6    1    1    2  501    0  0.93969943182E+02 -0.67120072784E+02  0.41134180397E+03  0.46094092256E+03  0.17300000000E+03 0. -1.
         -6    1    1    2    0  503 -0.93969943182E+02  0.67120072784E+02  0.70785508812E+02  0.21971582248E+03  0.17300000000E+03 0. -1.
<mgrwt>
<rscale>  2 0.20800109E+03</rscale>
<asrwt>0</asrwt>
<pdfrwt beam="1">  1       21 0.89444926E-01 0.20800109E+03</pdfrwt>
<pdfrwt beam="2">  1       21 0.15271495E-01 0.20800109E+03</pdfrwt>
<totfact> 0.40135719E+04</totfact>
</mgrwt>
</event>
<event>
 4    1  0.4349106E+000  0.1962094E+03  0.7546771E-02  0.1152977E+00
         21   -1    0    0  503  502  0.00000000000E+00  0.00000000000E+00  0.21318930657E+02  0.21318930657E+02  0.00000000000E+00 0. -1.
         21   -1    0    0  501  503 -0.00000000000E+00 -0.00000000000E+00 -0.19424412387E+04  0.19424412387E+04  0.00000000000E+00 0. -1.
          6    1    1    2  501    0 -0.61528019711E+02 -0.69162252723E+02 -0.12209643862E+04  0.12366293490E+04  0.17300000000E+03 0.  1.
         -6    1    1    2    0  502  0.61528019711E+02  0.69162252723E+02 -0.70015792187E+03  0.72713082039E+03  0.17300000000E+03 0.  1.
<mgrwt>
<rscale>  2 0.19620936E+03</rscale>
<asrwt>0</asrwt>
<pdfrwt beam="1">  1       21 0.32798366E-02 0.19620936E+03</pdfrwt>
<pdfrwt beam="2">  1       21 0.29883701E+00 0.19620936E+03</pdfrwt>
<totfact> 0.18851808E+04</totfact>
</mgrwt>
</event>
<event>
 4    1  0.4349106E+000  0.2066236E+03  0.7546771E-02  0.1144268E+00
         21   -1    0    0  503  502  0.00000000000E+00  0.00000000000E+00  0.23930024156E+03  0.23930024156E+03  0.00000000000E+00 0.  1.
         21   -1    0    0  501  503 -0.00000000000E+00 -0.00000000000E+00 -0.21403919447E+03  0.21403919447E+03  0.00000000000E+00 0.  1.
          6    1    1    2  501    0 -0.21878966640E+02 -0.11084060433E+03  0.10511218905E+03  0.23182299505E+03  0.17300000000E+03 0.  1.
         -6    1    1    2    0  502  0.21878966640E+02  0.11084060433E+03 -0.79851141954E+02  0.22151644097E+03  0.17300000000E+03 0.  1.
<mgrwt>
<rscale>  2 0.20662364E+03</rscale>
<asrwt>0</asrwt>
<pdfrwt beam="1">  1       21 0.36815422E-01 0.20662364E+03</pdfrwt>
<pdfrwt beam="2">  1       21 0.32929107E-01 0.20662364E+03</pdfrwt>
<totfact> 0.62770907E+04</totfact>
</mgrwt>
</event>
<event>
 4    1  0.4349106E+000  0.1993982E+03  0.7546771E-02  0.1150248E+00
         21   -1    0    0  501  502  0.00000000000E+00  0.00000000000E+00  0.99298803786E+02  0.99298803786E+02  0.00000000000E+00 0.  1.
         21   -1    0    0  502  503 -0.00000000000E+00 -0.00000000000E+00 -0.40873162392E+03  0.40873162392E+03  0.00000000000E+00 0.  1.
          6    1    1    2  501    0  0.23188161068E+02 -0.96399940559E+02 -0.11845865876E+03  0.23193122513E+03  0.17300000000E+03 0.  1.
         -6    1    1    2    0  503 -0.23188161068E+02  0.96399940559E+02 -0.19097416138E+03  0.27609920258E+03  0.17300000000E+03 0.  1.
<mgrwt>
<rscale>  2 0.19939819E+03</rscale>
<asrwt>0</asrwt>
<pdfrwt beam="1">  1       21 0.15276739E-01 0.19939819E+03</pdfrwt>
<pdfrwt beam="2">  1       21 0.62881789E-01 0.19939819E+03</pdfrwt>
<totfact> 0.88608127E+04</totfact>
</mgrwt>
</event>
<event>
 4    1  0.4349106E+000  0.1914910E+03  0.7546771E-02  0.1157123E+00
         21   -1    0    0  501  502  0.00000000000E+00  0.00000000000E+00  0.20542767902E+03  0.20542767902E+03  0.00000000000E+00 0.  1.
         21   -1    0    0  502  503 -0.00000000000E+00 -0.00000000000E+00 -0.18954422700E+03  0.18954422700E+03  0.00000000000E+00 0.  1.
          6    1    1    2  501    0 -0.66316212150E+02 -0.48393962324E+02  0.55612367484E+02  0.19940298644E+03  0.17300000000E+03 0.  1.
         -6    1    1    2    0  503  0.66316212150E+02  0.48393962324E+02 -0.39728915459E+02  0.19556891958E+03  0.17300000000E+03 0.  1.
<mgrwt>
<rscale>  2 0.19149103E+03</rscale>
<asrwt>0</asrwt>
<pdfrwt beam="1">  1       21 0.31604258E-01 0.19149103E+03</pdfrwt>
<pdfrwt beam="2">  1       21 0.29160650E-01 0.19149103E+03</pdfrwt>
<totfact> 0.10843319E+05</totfact>
</mgrwt>
</event>
<event>
 4    1  0.4349106E+000  0.2295833E+03  0.7546771E-02  0.1126933E+00
         21   -1    0    0  503  502  0.00000000000E+00  0.00000000000E+00  0.23971461737E+02  0.23971461737E+02  0.00000000000E+00 0.  1.
         21   -1    0    0  501  503 -0.00000000000E+00 -0.00000000000E+00 -0.25730501679E+04  0.25730501679E+04  0.00000000000E+00 0.  1.
          6    1    1    2  501    0 -0.43620366483E+02  0.14448794053E+03 -0.17697628075E+04  0.17845920811E+04  0.17300000000E+03 0.  1.
         -6    1    1    2    0  502  0.43620366483E+02 -0.14448794053E+03 -0.77931589869E+03  0.81242954850E+03  0.17300000000E+03 0.  1.
<mgrwt>
<rscale>  2 0.22958332E+03</rscale>
<asrwt>0</asrwt>
<pdfrwt beam="1">  1       21 0.36879196E-02 0.22958332E+03</pdfrwt>
<pdfrwt beam="2">  1       21 0.39585361E+00 0.22958332E+03</pdfrwt>
<totfact> 0.39585085E+03</totfact>
</mgrwt>
</event>
<event>
 4    1  0.4349106E+000  0.1755290E+03  0.7546771E-02  0.1172202E+00
         21   -1    0    0  501  502  0.00000000000E+00  0.00000000000E+00  0.11240537066E+03  0.11240537066E+03  0.00000000000E+00 0. -1.
         21   -1    0    0  502  503 -0.00000000000E+00 -0.00000000000E+00 -0.27629049196E+03  0.27629049196E+03  0.00000000000E+00 0. -1.
          6    1    1    2  501    0 -0.82260209263E+01 -0.28526285271E+02 -0.99243743813E+02  0.20164259733E+03  0.17300000000E+03 0.  1.
         -6    1    1    2    0  503  0.82260209263E+01  0.28526285271E+02 -0.64641377493E+02  0.18705326529E+03  0.17300000000E+03 0.  1.
<mgrwt>
<rscale>  2 0.17552896E+03</rscale>
<asrwt>0</asrwt>
<pdfrwt beam="1">  1       21 0.17293134E-01 0.17552896E+03</pdfrwt>
<pdfrwt beam="2">  1       21 0.42506230E-01 0.17552896E+03</pdfrwt>
<totfact> 0.16184134E+05</totfact>
</mgrwt>
</event>
<event>
 4    1  0.4349106E+000  0.1841980E+03  0.7546771E-02  0.1163801E+00
         21   -1    0    0  503  502  0.00000000000E+00  0.00000000000E+00  0.17712242381E+04  0.17712242381E+04  0.00000000000E+00 0. -1.
         21   -1    0    0  501  503 -0.00000000000E+00 -0.00000000000E+00 -0.51515448073E+02  0.51515448073E+02  0.00000000000E+00 0. -1.
          6    1    1    2  501    0 -0.43425408393E+02  0.45979775582E+02  0.13753547994E+03  0.22988021685E+03  0.17300000000E+03 0. -1.
         -6    1    1    2    0  502  0.43425408393E+02 -0.45979775582E+02  0.15821733101E+04  0.15928594694E+04  0.17300000000E+03 0. -1.
<mgrwt>
<rscale>  2 0.18419801E+03</rscale>
<asrwt>0</asrwt>
<pdfrwt beam="1">  1       21 0.27249599E+00 0.18419801E+03</pdfrwt>
<pdfrwt beam="2">  1       21 0.79254549E-02 0.18419801E+03</pdfrwt>
<totfact> 0.60531564E+03</totfact>
</mgrwt>
</event>
<event>
 4    1  0.4349106E+000  0.1905131E+03  0.7546771E-02  0.1157999E+00
         21   -1    0    0  501  502  0.00000000000E+00  0.00000000000E+00  0.40243321105E+03  0.40243321105E+03  0.00000000000E+00 0.  1.
         21   -1    0    0  502  503 -0.00000000000E+00 -0.00000000000E+00 -0.76232745757E+03  0.76232745757E+03  0.00000000000E+00 0.  1.
          6    1    1    2  501    0 -0.66988971661E+02 -0.43344230674E+02  0.36689899729E+03  0.41341277057E+03  0.17300000000E+03 0.  1.
         -6    1    1    2    0  503  0.66988971661E+02  0.43344230674E+02 -0.72679324381E+03  0.75134789805E+03  0.17300000000E+03 0.  1.
<mgrwt>
<rscale>  2 0.19051311E+03</rscale>
<asrwt>0</asrwt>
<pdfrwt beam="1">  1       21 0.61912803E-01 0.19051311E+03</pdfrwt>
<pdfrwt beam="2">  1       21 0.11728115E+00 0.19051311E+03</pdfrwt>
<totfact> 0.13562576E+03</totfact>
</mgrwt>
</event>
<event>
 4    1  0.4349106E+000  0.2262030E+03  0.7546771E-02  0.1129341E+00
         21   -1    0    0  501  502  0.00000000000E+00  0.00000000000E+00  0.12378178068E+04  0.12378178068E+04  0.00000000000E+00 0. -1.
         21   -1    0    0  502  503 -0.00000000000E+00 -0.00000000000E+00 -0.10287408928E+03  0.10287408928E+03  0.00000000000E+00 0.  1.
          6    1    1    2  501    0 -0.14568712040E+03  0.37475241562E+01  0.10859305495E+04  0.11092398025E+04  0.17300000000E+03 0. -1.
         -6    1    1    2    0  503  0.14568712040E+03 -0.37475241562E+01  0.49013167969E+02  0.23145209358E+03  0.17300000000E+03 0.  1.
<mgrwt>
<rscale>  2 0.22620296E+03</rscale>
<asrwt>0</asrwt>
<pdfrwt beam="1">  1       21 0.19043350E+00 0.22620296E+03</pdfrwt>
<pdfrwt beam="2">  1       21 0.15826784E-01 0.22620296E+03</pdfrwt>
<totfact> 0.53560945E+03</totfact>
</mgrwt>
</event>
<event>
 4    1  0.4349106E+000  0.2645857E+03  0.7546771E-02  0.1104419E+00
         21   -1    0    0  501  502  0.00000000000E+00  0.00000000000E+00  0.71093054998E+02  0.71093054998E+02  0.00000000000E+00 0.  1.
         21   -1    0    0  502  503 -0.00000000000E+00 -0.00000000000E+00 -0.10830993438E+04  0.10830993438E+04  0.00000000000E+00 0. -1.
          6    1    1    2  501    0  0.50960558450E+02 -0.19359647908E+03 -0.33206189087E+03  0.42458294195E+03  0.17300000000E+03 0.  1.
         -6    1    1    2    0  503 -0.50960558450E+02  0.19359647908E+03 -0.67994439789E+03  0.72960945680E+03  0.17300000000E+03 0.  1.
<mgrwt>
<rscale>  2 0.26458567E+03</rscale>
<asrwt>0</asrwt>
<pdfrwt beam="1">  1       21 0.10937394E-01 0.26458567E+03</pdfrwt>
<pdfrwt beam="2">  1       21 0.16663066E+00 0.26458567E+03</pdfrwt>
<totfact> 0.14900420E+04</totfact>
</mgrwt>
</event>
<event>
 4    1  0.4349106E+000  0.2117863E+03  0.7546771E-02  0.1140159E+00
         21   -1    0    0  503  502  0.00000000000E+00  0.00000000000E+00  0.23231443854E+03  0.23231443854E+03  0.00000000000E+00 0. -1.
         21   -1    0    0  501  503 -0.00000000000E+00 -0.00000000000E+00 -0.19662713505E+03  0.19662713505E+03  0.00000000000E+00 0. -1.
          6    1    1    2  501    0 -0.12197212660E+03  0.68739438979E+01 -0.10994313400E+02  0.21207151081E+03  0.17300000000E+03 0. -1.
         -6    1    1    2    0  502  0.12197212660E+03 -0.68739438979E+01  0.46681616886E+02  0.21687006277E+03  0.17300000000E+03 0. -1.
<mgrwt>
<rscale>  2 0.21178633E+03</rscale>
<asrwt>0</asrwt>
<pdfrwt beam="1">  1       21 0.35740683E-01 0.21178633E+03</pdfrwt>
<pdfrwt beam="2">  1       21 0.30250329E-01 0.21178633E+03</pdfrwt>
<totfact> 0.78502698E+04</totfact>
</mgrwt>
</event>
<event>
 4    1  0.4349106E+000  0.1768894E+03  0.7546771E-02  0.1170848E+00
         21   -1    0    0  503  502  0.00000000000E+00  0.00000000000E+00  0.27116556020E+03  0.27116556020E+03  0.00000000000E+00 0. -1.
         21   -1    0    0  501  503 -0.00000000000E+00 -0.00000000000E+00 -0.14551770288E+03  0.14551770288E+03  0.00000000000E+00 0. -1.
          6    1    1    2  501    0  0.17497548593E+02 -0.32476239009E+02 -0.31974060889E+02  0.17975597591E+03  0.17300000000E+03 0. -1.
         -6    1    1    2    0  502 -0.17497548593E+02  0.32476239009E+02  0.15762191820E+03  0.23692728717E+03  0.17300000000E+03 0. -1.
<mgrwt>
<rscale>  2 0.17688943E+03</rscale>
<asrwt>0</asrwt>
<pdfrwt beam="1">  1       21 0.41717778E-01 0.17688943E+03</pdfrwt>
<pdfrwt beam="2">  1       21 0.22387339E-01 0.17688943E+03</pdfrwt>
<totfact> 0.10392788E+05</totfact>
</mgrwt>
</event>
<event>
 4    1  0.4349106E+000  0.2066040E+03  0.7546771E-02  0.1144284E+00
         21   -1    0    0  501  502  0.00000000000E+00  0.00000000000E+00  0.19390928947E+04  0.19390928947E+04  0.00000000000E+00 0. -1.
         21   -1    0    0  502  503 -0.00000000000E+00 -0.00000000000E+00 -0.24267311133E+02  0.24267311133E+02  0.00000000000E+00 0. -1.
          6    1    1    2  501    0  0.77022633481E+01  0.11268046030E+03  0.12566172904E+04  0.12734882117E+04  0.17300000000E+03 0. -1.
         -6    1    1    2    0  503 -0.77022633481E+01 -0.11268046030E+03  0.65820829319E+03  0.68987199409E+03  0.17300000000E+03 0. -1.
<mgrwt>
<rscale>  2 0.20660400E+03</rscale>
<asrwt>0</asrwt>
<pdfrwt beam="1">  1       21 0.29832186E+00 0.20660400E+03</pdfrwt>
<pdfrwt beam="2">  1       21 0.37334340E-02 0.20660400E+03</pdfrwt>
<totfact> 0.15138230E+04</totfact>
</mgrwt>
</event>
<event>
 4    1  0.4349106E+000  0.3261107E+03  0.7546771E-02  0.1072871E+00
         21   -1    0    0  503  502  0.00000000000E+00  0.00000000000E+00  0.74797771564E+03  0.74797771564E+03  0.00000000000E+00 0.  1.
         21   -1    0    0  501  503 -0.00000000000E+00 -0.00000000000E+00 -0.30416368322E+03  0.30416368322E+03  0.00000000000E+00 0. -1.
          6    1    1    2  501    0  0.32058205381E+02  0.27457509900E+03 -0.16199884218E+03  0.36413162235E+03  0.17300000000E+03 0. -1.
         -6    1    1    2    0  502 -0.32058205381E+02 -0.27457509900E+03  0.60581287461E+03  0.68800977651E+03  0.17300000000E+03 0.  1.
<mgrwt>
<rscale>  2 0.32611074E+03</rscale>
<asrwt>0</asrwt>
<pdfrwt beam="1">  1       21 0.11507349E+00 0.32611074E+03</pdfrwt>
<pdfrwt beam="2">  1       21 0.46794413E-01 0.32611074E+03</pdfrwt>
<totfact> 0.23332557E+03</totfact>
</mgrwt>
</event>
<event>
 4    1  0.4349106E+000  0.2496100E+03  0.7546771E-02  0.1113552E+00
         21   -1    0    0  503  502  0.00000000000E+00  0.00000000000E+00  0.28911361887E+03  0.28911361887E+03  0.00000000000E+00 0.  1.
         21   -1    0    0  501  503 -0.00000000000E+00 -0.00000000000E+00 -0.22541621315E+03  0.22541621315E+03  0.00000000000E+00 0.  1.
          6    1    1    2  501    0 -0.17632056428E+03  0.35878051774E+02  0.85796122771E+02  0.26394346112E+03  0.17300000000E+03 0.  1.
         -6    1    1    2    0  502  0.17632056428E+03 -0.35878051774E+02 -0.22098717053E+02  0.25058637090E+03  0.17300000000E+03 0.  1.
<mgrwt>
<rscale>  2 0.24961005E+03</rscale>
<asrwt>0</asrwt>
<pdfrwt beam="1">  1       21 0.44479018E-01 0.24961005E+03</pdfrwt>
<pdfrwt beam="2">  1       21 0.34679417E-01 0.24961005E+03</pdfrwt>
<totfact> 0.37857955E+04</totfact>
</mgrwt>
</event>
<event>
 4    1  0.4349106E+000  0.2303446E+03  0.7546771E-02  0.1126397E+00
         21   -1    0    0  501  502  0.00000000000E+00  0.00000000000E+00  0.51215195188E+03  0.51215195188E+03  0.00000000000E+00 0.  1.
         21   -1    0    0  502  503 -0.00000000000E+00 -0.00000000000E+00 -0.15022436425E+03  0.15022436425E+03  0.00000000000E+00 0. -1.
          6    1    1    2  501    0  0.13555948094E+03 -0.68943818395E+02  0.36547127369E+03  0.43200448477E+03  0.17300000000E+03 0.  1.
         -6    1    1    2    0  503 -0.13555948094E+03  0.68943818395E+02 -0.35436860652E+01  0.23037183135E+03  0.17300000000E+03 0. -1.
<mgrwt>
<rscale>  2 0.23034457E+03</rscale>
<asrwt>0</asrwt>
<pdfrwt beam="1">  1       21 0.78792607E-01 0.23034457E+03</pdfrwt>
<pdfrwt beam="2">  1       21 0.23111441E-01 0.23034457E+03</pdfrwt>
<totfact> 0.24515029E+04</totfact>
</mgrwt>
</event>
<event>
 4    1  0.4349106E+000  0.2419253E+03  0.7546771E-02  0.1118517E+00
         21   -1    0    0  503  502  0.00000000000E+00  0.00000000000E+00  0.22532626603E+03  0.22532626603E+03  0.00000000000E+00 0. -1.
         21   -1    0    0  501  503 -0.00000000000E+00 -0.00000000000E+00 -0.26009654897E+03  0.26009654897E+03  0.00000000000E+00 0. -1.
          6    1    1    2  501    0  0.94914273412E+02 -0.13996475572E+03 -0.26281100069E+02  0.24334861488E+03  0.17300000000E+03 0. -1.
         -6    1    1    2    0  502 -0.94914273412E+02  0.13996475572E+03 -0.84891828774E+01  0.24207420013E+03  0.17300000000E+03 0. -1.
<mgrwt>
<rscale>  2 0.24192530E+03</rscale>
<asrwt>0</asrwt>
<pdfrwt beam="1">  1       21 0.34665580E-01 0.24192530E+03</pdfrwt>
<pdfrwt beam="2">  1       21 0.40014853E-01 0.24192530E+03</pdfrwt>
<totfact> 0.47200009E+04</totfact>
</mgrwt>
</event>
<event>
 4    1  0.4349106E+000  0.1802903E+03  0.7546771E-02  0.1167522E+00
         21   -1    0    0  501  502  0.00000000000E+00  0.00000000000E+00  0.30577554611E+03  0.30577554611E+03  0.00000000000E+00 0. -1.
         21   -1    0    0  502  503 -0.00000000000E+00 -0.00000000000E+00 -0.20208533389E+03  0.20208533389E+03  0.00000000000E+00 0. -1.
          6    1    1    2  501    0  0.20498516969E+02  0.46426128964E+02  0.22666553227E+03  0.28962361466E+03  0.17300000000E+03 0. -1.
         -6    1    1    2    0  503 -0.20498516969E+02 -0.46426128964E+02 -0.12297532005E+03  0.21823726535E+03  0.17300000000E+03 0. -1.
<mgrwt>
<rscale>  2 0.18029025E+03</rscale>
<asrwt>0</asrwt>
<pdfrwt beam="1">  1       21 0.47042392E-01 0.18029025E+03</pdfrwt>
<pdfrwt beam="2">  1       21 0.31090051E-01 0.18029025E+03</pdfrwt>
<totfact> 0.43241864E+04</totfact>
</mgrwt>
</event>
<event>
 4    1  0.4349106E+000  0.1919047E+03  0.7546771E-02  0.1156755E+00
         21   -1    0    0  501  502  0.00000000000E+00  0.00000000000E+00  0.77311754342E+02  0.77311754342E+02  0.00000000000E+00 0. -1.
         21   -1    0    0  502  503 -0.00000000000E+00 -0.00000000000E+00 -0.49204767243E+03  0.49204767243E+03  0.00000000000E+00 0. -1.
          6    1    1    2  501    0  0.83005760612E+02 -0.29083314393E+01 -0.15651951986E+03  0.24764041428E+03  0.17300000000E+03 0. -1.
         -6    1    1    2    0  503 -0.83005760612E+02  0.29083314393E+01 -0.25821639823E+03  0.32171901249E+03  0.17300000000E+03 0. -1.
<mgrwt>
<rscale>  2 0.19190470E+03</rscale>
<asrwt>0</asrwt>
<pdfrwt beam="1">  1       21 0.11894116E-01 0.19190470E+03</pdfrwt>
<pdfrwt beam="2">  1       21 0.75699640E-01 0.19190470E+03</pdfrwt>
<totfact> 0.92876125E+04</totfact>
</mgrwt>
</event>
<event>
 4    1  0.4349106E+000  0.2021722E+03  0.7546771E-02  0.1147919E+00
         21   -1    0    0  501  502  0.00000000000E+00  0.00000000000E+00  0.25555617191E+03  0.25555617191E+03  0.00000000000E+00 0. -1.
         21   -1    0    0  502  503 -0.00000000000E+00 -0.00000000000E+00 -0.16506049294E+03  0.16506049294E+03  0.00000000000E+00 0.  1.
          6    1    1    2  501    0  0.52453566699E+02 -0.90516505670E+02  0.82290091398E+02  0.21827797324E+03  0.17300000000E+03 0. -1.
         -6    1    1    2    0  503 -0.52453566699E+02  0.90516505670E+02  0.82055875689E+01  0.20233869162E+03  0.17300000000E+03 0.  1.
<mgrwt>
<rscale>  2 0.20217224E+03</rscale>
<asrwt>0</asrwt>
<pdfrwt beam="1">  1       21 0.39316334E-01 0.20217224E+03</pdfrwt>
<pdfrwt beam="2">  1       21 0.25393922E-01 0.20217224E+03</pdfrwt>
<totfact> 0.91325932E+04</totfact>
</mgrwt>
</event>
<event>
 4    1  0.4349106E+000  0.2085752E+03  0.7546771E-02  0.1142699E+00
         21   -1    0    0  501  502  0.00000000000E+00  0.00000000000E+00  0.11432650204E+04  0.11432650204E+04  0.00000000000E+00 0. -1.
         21   -1    0    0  502  503 -0.00000000000E+00 -0.00000000000E+00 -0.82766016616E+02  0.82766016616E+02  0.00000000000E+00 0.  1.
          6    1    1    2  501    0 -0.92583444824E+02  0.70731408986E+02  0.98082423475E+03  0.10027561049E+04  0.17300000000E+03 0. -1.
         -6    1    1    2    0  503  0.92583444824E+02 -0.70731408986E+02  0.79674768996E+02  0.22327493206E+03  0.17300000000E+03 0.  1.
<mgrwt>
<rscale>  2 0.20857523E+03</rscale>
<asrwt>0</asrwt>
<pdfrwt beam="1">  1       21 0.17588691E+00 0.20857523E+03</pdfrwt>
<pdfrwt beam="2">  1       21 0.12733234E-01 0.20857523E+03</pdfrwt>
<totfact> 0.10117322E+04</totfact>
</mgrwt>
</event>
<event>
 4    1  0.4349106E+000  0.1967689E+03  0.7546771E-02  0.1152494E+00
         21   -1    0    0  503  502  0.00000000000E+00  0.00000000000E+00  0.15163595630E+03  0.15163595630E+03  0.00000000000E+00 0.  1.
         21   -1    0    0  501  503 -0.00000000000E+00 -0.00000000000E+00 -0.30584304103E+03  0.30584304103E+03  0.00000000000E+00 0.  1.
          6    1    1    2  501    0  0.39416965120E+02 -0.85060605199E+02 -0.17005818432E+03  0.26007266244E+03  0.17300000000E+03 0.  1.
         -6    1    1    2    0  502 -0.39416965120E+02  0.85060605199E+02  0.15851099589E+02  0.19740633489E+03  0.17300000000E+03 0.  1.
<mgrwt>
<rscale>  2 0.19676891E+03</rscale>
<asrwt>0</asrwt>
<pdfrwt beam="1">  1       21 0.23328609E-01 0.19676891E+03</pdfrwt>
<pdfrwt beam="2">  1       21 0.47052775E-01 0.19676891E+03</pdfrwt>
<totfact> 0.74551715E+04</totfact>
</mgrwt>
</event>
<event>
 4    1  0.4349106E+000  0.2003727E+03  0.7546771E-02  0.1149425E+00
         21   -1    0    0  503  502  0.00000000000E+00  0.00000000000E+00  0.46716709590E+02  0.46716709590E+02  0.00000000000E+00 0. -1.
         21   -1    0    0  501  503 -0.00000000000E+00 -0.00000000000E+00 -0.89680190033E+03  0.89680190033E+03  0.00000000000E+00 0. -1.
          6    1    1    2  501    0  0.34881364462E+01 -0.10103493565E+03 -0.32872424741E+03  0.38497903339E+03  0.17300000000E+03 0. -1.
         -6    1    1    2    0  502 -0.34881364462E+01  0.10103493565E+03 -0.52136094334E+03  0.55853957653E+03  0.17300000000E+03 0. -1.
<mgrwt>
<rscale>  2 0.20037272E+03</rscale>
<asrwt>0</asrwt>
<pdfrwt beam="1">  1       21 0.71871870E-02 0.20037272E+03</pdfrwt>
<pdfrwt beam="2">  1       21 0.13796951E+00 0.20037272E+03</pdfrwt>
<totfact> 0.53474370E+04</totfact>
</mgrwt>
</event>
<event>
 4    1  0.4349106E+000  0.1915529E+03  0.7546771E-02  0.1157068E+00
         21   -1    0    0  501  502  0.00000000000E+00  0.00000000000E+00  0.75259944995E+03  0.75259944995E+03  0.00000000000E+00 0.  1.
         21   -1    0    0  502  503 -0.00000000000E+00 -0.00000000000E+00 -0.61060306174E+02  0.61060306174E+02  0.00000000000E+00 0.  1.
          6    1    1    2  501    0 -0.40826995539E+02 -0.71391085375E+02  0.52840719433E+03  0.56205577451E+03  0.17300000000E+03 0.  1.
         -6    1    1    2    0  503  0.40826995539E+02  0.71391085375E+02  0.16313194944E+03  0.25160398162E+03  0.17300000000E+03 0.  1.
<mgrwt>
<rscale>  2 0.19155294E+03</rscale>
<asrwt>0</asrwt>
<pdfrwt beam="1">  1       21 0.11578452E+00 0.19155294E+03</pdfrwt>
<pdfrwt beam="2">  1       21 0.93938938E-02 0.19155294E+03</pdfrwt>
<totfact> 0.52273110E+04</totfact>
</mgrwt>
</event>
<event>
 4    1  0.4349106E+000  0.1951382E+03  0.7546771E-02  0.1153907E+00
         21   -1    0    0  503  502  0.00000000000E+00  0.00000000000E+00  0.91844279960E+02  0.91844279960E+02  0.00000000000E+00 0.  1.
         21   -1    0    0  501  503 -0.00000000000E+00 -0.00000000000E+00 -0.42529091487E+03  0.42529091487E+03  0.00000000000E+00 0.  1.
          6    1    1    2  501    0  0.61907494816E+02 -0.65706667075E+02 -0.12573314451E+03  0.23213730343E+03  0.17300000000E+03 0.  1.
         -6    1    1    2    0  502 -0.61907494816E+02  0.65706667075E+02 -0.20771349040E+03  0.28499789141E+03  0.17300000000E+03 0.  1.
<mgrwt>
<rscale>  2 0.19513817E+03</rscale>
<asrwt>0</asrwt>
<pdfrwt beam="1">  1       21 0.14129889E-01 0.19513817E+03</pdfrwt>
<pdfrwt beam="2">  1       21 0.65429373E-01 0.19513817E+03</pdfrwt>
<totfact> 0.93851323E+04</totfact>
</mgrwt>
</event>
<event>
 4    1  0.4349106E+000  0.1764549E+03  0.7546771E-02  0.1171279E+00
         21   -1    0    0  503  502  0.00000000000E+00  0.00000000000E+00  0.20433500713E+03  0.20433500713E+03  0.00000000000E+00 0. -1.
         21   -1    0    0  501  503 -0.00000000000E+00 -0.00000000000E+00 -0.15322505026E+03  0.15322505026E+03  0.00000000000E+00 0.  1.
          6    1    1    2  501    0 -0.32495911681E+02  0.12302853430E+02  0.38840444130E+02  0.18067906514E+03  0.17300000000E+03 0. -1.
         -6    1    1    2    0  502  0.32495911681E+02 -0.12302853430E+02  0.12269512745E+02  0.17688099226E+03  0.17300000000E+03 0.  1.
<mgrwt>
<rscale>  2 0.17645494E+03</rscale>
<asrwt>0</asrwt>
<pdfrwt beam="1">  1       21 0.31436155E-01 0.17645494E+03</pdfrwt>
<pdfrwt beam="2">  1       21 0.23573085E-01 0.17645494E+03</pdfrwt>
<totfact> 0.16557435E+05</totfact>
</mgrwt>
</event>
<event>
 4    1  0.4349106E+000  0.2817744E+03  0.7546771E-02  0.1094724E+00
         21   -1    0    0  501  502  0.00000000000E+00  0.00000000000E+00  0.22779259953E+03  0.22779259953E+03  0.00000000000E+00 0. -1.
         21   -1    0    0  502  503 -0.00000000000E+00 -0.00000000000E+00 -0.34854931838E+03  0.34854931838E+03  0.00000000000E+00 0. -1.
          6    1    1    2  501    0 -0.79864638132E+02  0.20758001900E+03 -0.60008787168E+02  0.28809352518E+03  0.17300000000E+03 0. -1.
         -6    1    1    2    0  503  0.79864638132E+02 -0.20758001900E+03 -0.60747931682E+02  0.28824839274E+03  0.17300000000E+03 0. -1.
<mgrwt>
<rscale>  2 0.28177442E+03</rscale>
<asrwt>0</asrwt>
<pdfrwt beam="1">  1       21 0.35045015E-01 0.28177442E+03</pdfrwt>
<pdfrwt beam="2">  1       21 0.53622972E-01 0.28177442E+03</pdfrwt>
<totfact> 0.24727705E+04</totfact>
</mgrwt>
</event>
<event>
 4    1  0.4349106E+000  0.2040210E+03  0.7546771E-02  0.1146390E+00
         21   -1    0    0  503  502  0.00000000000E+00  0.00000000000E+00  0.20402553316E+02  0.20402553316E+02  0.00000000000E+00 0.  1.
         21   -1    0    0  501  503 -0.00000000000E+00 -0.00000000000E+00 -0.20861429355E+04  0.20861429355E+04  0.00000000000E+00 0. -1.
          6    1    1    2  501    0  0.10767456657E+03  0.10088217649E+02 -0.11892358614E+04  0.12066095137E+04  0.17300000000E+03 0. -1.
         -6    1    1    2    0  502 -0.10767456657E+03 -0.10088217649E+02 -0.87650452075E+03  0.89993597512E+03  0.17300000000E+03 0.  1.
<mgrwt>
<rscale>  2 0.20402104E+03</rscale>
<asrwt>0</asrwt>
<pdfrwt beam="1">  1       21 0.31388548E-02 0.20402104E+03</pdfrwt>
<pdfrwt beam="2">  1       21 0.32094502E+00 0.20402104E+03</pdfrwt>
<totfact> 0.14991560E+04</totfact>
</mgrwt>
</event>
<event>
 4    1  0.4349106E+000  0.1747559E+03  0.7546771E-02  0.1172977E+00
         21   -1    0    0  503  502  0.00000000000E+00  0.00000000000E+00  0.16956256070E+03  0.16956256070E+03  0.00000000000E+00 0. -1.
         21   -1    0    0  501  503 -0.00000000000E+00 -0.00000000000E+00 -0.20682713143E+03  0.20682713143E+03  0.00000000000E+00 0. -1.
          6    1    1    2  501    0 -0.21748506724E+02 -0.11731777274E+02  0.49009075642E+02  0.18149799348E+03  0.17300000000E+03 0. -1.
         -6    1    1    2    0  502  0.21748506724E+02  0.11731777274E+02 -0.86273646375E+02  0.19489169865E+03  0.17300000000E+03 0. -1.
<mgrwt>
<rscale>  2 0.17475592E+03</rscale>
<asrwt>0</asrwt>
<pdfrwt beam="1">  1       21 0.26086548E-01 0.17475592E+03</pdfrwt>
<pdfrwt beam="2">  1       21 0.31819559E-01 0.17475592E+03</pdfrwt>
<totfact> 0.13341367E+05</totfact>
</mgrwt>
</event>
<event>
 4    1  0.4349106E+000  0.1853856E+03  0.7546771E-02  0.1162690E+00
         21   -1    0    0  503  502  0.00000000000E+00  0.00000000000E+00  0.69987756230E+02  0.69987756230E+02  0.00000000000E+00 0.  1.
         21   -1    0    0  501  503 -0.00000000000E+00 -0.00000000000E+00 -0.77821510319E+03  0.77821510319E+03  0.00000000000E+00 0.  1.
          6    1    1    2  501    0  0.40544387957E+02  0.52867422198E+02 -0.61173525339E+03  0.63920875461E+03  0.17300000000E+03 0.  1.
         -6    1    1    2    0  502 -0.40544387957E+02 -0.52867422198E+02 -0.96492093567E+02  0.20899410481E+03  0.17300000000E+03 0.  1.
<mgrwt>
<rscale>  2 0.18538558E+03</rscale>
<asrwt>0</asrwt>
<pdfrwt beam="1">  1       21 0.10767347E-01 0.18538558E+03</pdfrwt>
<pdfrwt beam="2">  1       21 0.11972541E+00 0.18538558E+03</pdfrwt>
<totfact> 0.37959256E+04</totfact>
</mgrwt>
</event>
<event>
 4    1  0.4349106E+000  0.1752480E+03  0.7546771E-02  0.1172483E+00
         21   -1    0    0  503  502  0.00000000000E+00  0.00000000000E+00  0.34044866807E+02  0.34044866807E+02  0.00000000000E+00 0. -1.
         21   -1    0    0  501  503 -0.00000000000E+00 -0.00000000000E+00 -0.10908816916E+04  0.10908816916E+04  0.00000000000E+00 0. -1.
          6    1    1    2  501    0 -0.22987237995E+02  0.15951296577E+02 -0.76240225647E+03  0.78228451195E+03  0.17300000000E+03 0. -1.
         -6    1    1    2    0  502  0.22987237995E+02 -0.15951296577E+02 -0.29443456831E+03  0.34264204644E+03  0.17300000000E+03 0. -1.
<mgrwt>
<rscale>  2 0.17524799E+03</rscale>
<asrwt>0</asrwt>
<pdfrwt beam="1">  1       21 0.52376722E-02 0.17524799E+03</pdfrwt>
<pdfrwt beam="2">  1       21 0.16782794E+00 0.17524799E+03</pdfrwt>
<totfact> 0.55516132E+04</totfact>
</mgrwt>
</event>
<event>
 4    1  0.4349106E+000  0.1745733E+03  0.7546771E-02  0.1173161E+00
         21   -1    0    0  501  502  0.00000000000E+00  0.00000000000E+00  0.97817420269E+03  0.97817420269E+03  0.00000000000E+00 0. -1.
         21   -1    0    0  502  503 -0.00000000000E+00 -0.00000000000E+00 -0.70178829002E+02  0.70178829002E+02  0.00000000000E+00 0. -1.
          6    1    1    2  501    0  0.12674945350E+02 -0.19651650800E+02  0.84486985849E+03  0.86271717231E+03  0.17300000000E+03 0. -1.
         -6    1    1    2    0  503 -0.12674945350E+02  0.19651650800E+02  0.63125515200E+02  0.18563585938E+03  0.17300000000E+03 0. -1.
<mgrwt>
<rscale>  2 0.17457331E+03</rscale>
<asrwt>0</asrwt>
<pdfrwt beam="1">  1       21 0.15048833E+00 0.17457331E+03</pdfrwt>
<pdfrwt beam="2">  1       21 0.10796744E-01 0.17457331E+03</pdfrwt>
<totfact> 0.21253819E+04</totfact>
</mgrwt>
</event>
<event>
 4    1  0.4349106E+000  0.2629651E+03  0.7546771E-02  0.1105375E+00
         21   -1    0    0  503  502  0.00000000000E+00  0.00000000000E+00  0.85197971306E+03  0.85197971306E+03  0.00000000000E+00 0. -1.
         21   -1    0    0  501  503 -0.00000000000E+00 -0.00000000000E+00 -0.10145818995E+03  0.10145818995E+03  0.00000000000E+00 0.  1.
          6    1    1    2  501    0  0.86363908658E+02  0.17822149670E+03  0.16205552079E+03  0.30888933038E+03  0.17300000000E+03 0.  1.
         -6    1    1    2    0  502 -0.86363908658E+02 -0.17822149670E+03  0.58846600231E+03  0.64454857263E+03  0.17300000000E+03 0. -1.
<mgrwt>
<rscale>  2 0.26296507E+03</rscale>
<asrwt>0</asrwt>
<pdfrwt beam="1">  1       21 0.13107380E+00 0.26296507E+03</pdfrwt>
<pdfrwt beam="2">  1       21 0.15608953E-01 0.26296507E+03</pdfrwt>
<totfact> 0.14802666E+04</totfact>
</mgrwt>
</event>
<event>
 4    1  0.4349106E+000  0.1871611E+03  0.7546771E-02  0.1161047E+00
         21   -1    0    0  501  502  0.00000000000E+00  0.00000000000E+00  0.85803355007E+03  0.85803355007E+03  0.00000000000E+00 0. -1.
         21   -1    0    0  502  503 -0.00000000000E+00 -0.00000000000E+00 -0.37656686014E+03  0.37656686014E+03  0.00000000000E+00 0. -1.
          6    1    1    2  501    0 -0.31163624564E+02  0.64258027713E+02  0.82361190927E+03  0.84460987604E+03  0.17300000000E+03 0. -1.
         -6    1    1    2    0  503  0.31163624564E+02 -0.64258027713E+02 -0.34214521933E+03  0.38999053416E+03  0.17300000000E+03 0. -1.
<mgrwt>
<rscale>  2 0.18716107E+03</rscale>
<asrwt>0</asrwt>
<pdfrwt beam="1">  1       21 0.13200516E+00 0.18716107E+03</pdfrwt>
<pdfrwt beam="2">  1       21 0.57933364E-01 0.18716107E+03</pdfrwt>
<totfact> 0.11680790E+03</totfact>
</mgrwt>
</event>
<event>
 4    1  0.4349106E+000  0.2513029E+03  0.7546771E-02  0.1112484E+00
         21   -1    0    0  501  502  0.00000000000E+00  0.00000000000E+00  0.44434415431E+03  0.44434415431E+03  0.00000000000E+00 0.  1.
         21   -1    0    0  502  503 -0.00000000000E+00 -0.00000000000E+00 -0.16857181950E+03  0.16857181950E+03  0.00000000000E+00 0. -1.
          6    1    1    2  501    0  0.17285425833E+03  0.57840808939E+02  0.25926738574E+03  0.36107164263E+03  0.17300000000E+03 0.  1.
         -6    1    1    2    0  503 -0.17285425833E+03 -0.57840808939E+02  0.16504949068E+02  0.25184433117E+03  0.17300000000E+03 0.  1.
<mgrwt>
<rscale>  2 0.25130291E+03</rscale>
<asrwt>0</asrwt>
<pdfrwt beam="1">  1       21 0.68360639E-01 0.25130291E+03</pdfrwt>
<pdfrwt beam="2">  1       21 0.25934126E-01 0.25130291E+03</pdfrwt>
<totfact> 0.26743187E+04</totfact>
</mgrwt>
</event>
<event>
 4    1  0.4349106E+000  0.1923185E+03  0.7546771E-02  0.1156387E+00
         21   -1    0    0  503  502  0.00000000000E+00  0.00000000000E+00  0.30827105669E+03  0.30827105669E+03  0.00000000000E+00 0. -1.
         21   -1    0    0  501  503 -0.00000000000E+00 -0.00000000000E+00 -0.26947972257E+03  0.26947972257E+03  0.00000000000E+00 0. -1.
          6    1    1    2  501    0  0.72964340578E+02  0.41636546872E+02 -0.19576729968E+03  0.27442892096E+03  0.17300000000E+03 0. -1.
         -6    1    1    2    0  502 -0.72964340578E+02 -0.41636546872E+02  0.23455863381E+03  0.30332185830E+03  0.17300000000E+03 0. -1.
<mgrwt>
<rscale>  2 0.19231848E+03</rscale>
<asrwt>0</asrwt>
<pdfrwt beam="1">  1       21 0.47426316E-01 0.19231848E+03</pdfrwt>
<pdfrwt beam="2">  1       21 0.41458419E-01 0.19231848E+03</pdfrwt>
<totfact> 0.23828612E+04</totfact>
</mgrwt>
</event>
<event>
 4    1  0.4349106E+000  0.2386821E+03  0.7546771E-02  0.1120674E+00
         21   -1    0    0  501  502  0.00000000000E+00  0.00000000000E+00  0.10790929895E+03  0.10790929895E+03  0.00000000000E+00 0. -1.
         21   -1    0    0  502  503 -0.00000000000E+00 -0.00000000000E+00 -0.53302080488E+03  0.53302080488E+03  0.00000000000E+00 0.  1.
          6    1    1    2  501    0 -0.31488894164E+02 -0.16139577674E+03 -0.24385746391E+03  0.34122662544E+03  0.17300000000E+03 0.  1.
         -6    1    1    2    0  503  0.31488894164E+02  0.16139577674E+03 -0.18125404202E+03  0.29970347838E+03  0.17300000000E+03 0.  1.
<mgrwt>
<rscale>  2 0.23868210E+03</rscale>
<asrwt>0</asrwt>
<pdfrwt beam="1">  1       21 0.16601431E-01 0.23868210E+03</pdfrwt>
<pdfrwt beam="2">  1       21 0.82003198E-01 0.23868210E+03</pdfrwt>
<totfact> 0.41435836E+04</totfact>
</mgrwt>
</event>
<event>
 4    1  0.4349106E+000  0.2107649E+03  0.7546771E-02  0.1140962E+00
         21   -1    0    0  503  502  0.00000000000E+00  0.00000000000E+00  0.13201398794E+03  0.13201398794E+03  0.00000000000E+00 0. -1.
         21   -1    0    0  501  503 -0.00000000000E+00 -0.00000000000E+00 -0.41540783772E+03  0.41540783772E+03  0.00000000000E+00 0. -1.
          6    1    1    2  501    0 -0.52635627019E+02  0.10826964041E+03 -0.26099494616E+03  0.33547009731E+03  0.17300000000E+03 0. -1.
         -6    1    1    2    0  502  0.52635627019E+02 -0.10826964041E+03 -0.22398903624E+02  0.21195172835E+03  0.17300000000E+03 0. -1.
<mgrwt>
<rscale>  2 0.21076486E+03</rscale>
<asrwt>0</asrwt>
<pdfrwt beam="1">  1       21 0.20309845E-01 0.21076486E+03</pdfrwt>
<pdfrwt beam="2">  1       21 0.63908897E-01 0.21076486E+03</pdfrwt>
<totfact> 0.50271349E+04</totfact>
</mgrwt>
</event>
<event>
 4    1  0.4349106E+000  0.2801012E+03  0.7546771E-02  0.1095634E+00
         21   -1    0    0  501  502  0.00000000000E+00  0.00000000000E+00  0.13177765229E+04  0.13177765229E+04  0.00000000000E+00 0. -1.
         21   -1    0    0  502  503 -0.00000000000E+00 -0.00000000000E+00 -0.89350243802E+02  0.89350243802E+02  0.00000000000E+00 0. -1.
          6    1    1    2  501    0  0.20355925725E+03 -0.84209838997E+02  0.10206179384E+04  0.10583561047E+04  0.17300000000E+03 0. -1.
         -6    1    1    2    0  503 -0.20355925725E+03  0.84209838997E+02  0.20780834067E+03  0.34877066197E+03  0.17300000000E+03 0. -1.
<mgrwt>
<rscale>  2 0.28010117E+03</rscale>
<asrwt>0</asrwt>
<pdfrwt beam="1">  1       21 0.20273484E+00 0.28010117E+03</pdfrwt>
<pdfrwt beam="2">  1       21 0.13746192E-01 0.28010117E+03</pdfrwt>
<totfact> 0.55400603E+03</totfact>
</mgrwt>
</event>
<event>
 4    1  0.4349106E+000  0.1891674E+03  0.7546771E-02  0.1159214E+00
         21   -1    0    0  501  502  0.00000000000E+00  0.00000000000E+00  0.12641566195E+04  0.12641566195E+04  0.00000000000E+00 0.  1.
         21   -1    0    0  502  503 -0.00000000000E+00 -0.00000000000E+00 -0.84371825932E+02  0.84371825932E+02  0.00000000000E+00 0.  1.
          6    1    1    2  501    0  0.49597131909E+02  0.58270245302E+02  0.11395309608E+04  0.11551255809E+04  0.17300000000E+03 0.  1.
         -6    1    1    2    0  503 -0.49597131909E+02 -0.58270245302E+02  0.40253832824E+02  0.19340286461E+03  0.17300000000E+03 0.  1.
<mgrwt>
<rscale>  2 0.18916738E+03</rscale>
<asrwt>0</asrwt>
<pdfrwt beam="1">  1       21 0.19448562E+00 0.18916738E+03</pdfrwt>
<pdfrwt beam="2">  1       21 0.12980282E-01 0.18916738E+03</pdfrwt>
<totfact> 0.74521623E+03</totfact>
</mgrwt>
</event>
<event>
 4    1  0.4349106E+000  0.2051913E+03  0.7546771E-02  0.1145432E+00
         21   -1    0    0  501  502  0.00000000000E+00  0.00000000000E+00  0.16306345569E+03  0.16306345569E+03  0.00000000000E+00 0.  1.
         21   -1    0    0  502  503 -0.00000000000E+00 -0.00000000000E+00 -0.37693748485E+03  0.37693748485E+03  0.00000000000E+00 0. -1.
          6    1    1    2  501    0  0.46108136916E+01 -0.11024165445E+03  0.44599815032E+02  0.20998244089E+03  0.17300000000E+03 0.  1.
         -6    1    1    2    0  503 -0.46108136916E+01  0.11024165445E+03 -0.25847384420E+03  0.33001849965E+03  0.17300000000E+03 0. -1.
<mgrwt>
<rscale>  2 0.20519133E+03</rscale>
<asrwt>0</asrwt>
<pdfrwt beam="1">  1       21 0.25086685E-01 0.20519133E+03</pdfrwt>
<pdfrwt beam="2">  1       21 0.57990382E-01 0.20519133E+03</pdfrwt>
<totfact> 0.41672121E+04</totfact>
</mgrwt>
</event>
<event>
 4    1  0.4349106E+000  0.2401128E+03  0.7546771E-02  0.1119718E+00
         21   -1    0    0  503  502  0.00000000000E+00  0.00000000000E+00  0.57537185645E+02  0.57537185645E+02  0.00000000000E+00 0.  1.
         21   -1    0    0  501  503 -0.00000000000E+00 -0.00000000000E+00 -0.10028893590E+04  0.10028893590E+04  0.00000000000E+00 0.  1.
          6    1    1    2  501    0  0.11519885568E+03 -0.12022640018E+03 -0.48816890372E+03  0.54402485441E+03  0.17300000000E+03 0.  1.
         -6    1    1    2    0  502 -0.11519885568E+03  0.12022640018E+03 -0.45718326965E+03  0.51640169026E+03  0.17300000000E+03 0.  1.
<mgrwt>
<rscale>  2 0.24011281E+03</rscale>
<asrwt>0</asrwt>
<pdfrwt beam="1">  1       21 0.88518758E-02 0.24011281E+03</pdfrwt>
<pdfrwt beam="2">  1       21 0.15429065E+00 0.24011281E+03</pdfrwt>
<totfact> 0.27118896E+04</totfact>
</mgrwt>
</event>
<event>
 4    1  0.4349106E+000  0.2537656E+03  0.7546771E-02  0.1110948E+00
         21   -1    0    0  503  502  0.00000000000E+00  0.00000000000E+00  0.19878433256E+03  0.19878433256E+03  0.00000000000E+00 0.  1.
         21   -1    0    0  501  503 -0.00000000000E+00 -0.00000000000E+00 -0.38180763826E+03  0.38180763826E+03  0.00000000000E+00 0. -1.
          6    1    1    2  501    0  0.18559465020E+03 -0.47525977008E+01 -0.20451320455E+03  0.32591810659E+03  0.17300000000E+03 0. -1.
         -6    1    1    2    0  502 -0.18559465020E+03  0.47525977008E+01  0.21489898847E+02  0.25467386423E+03  0.17300000000E+03 0.  1.
<mgrwt>
<rscale>  2 0.25376556E+03</rscale>
<asrwt>0</asrwt>
<pdfrwt beam="1">  1       21 0.30582205E-01 0.25376556E+03</pdfrwt>
<pdfrwt beam="2">  1       21 0.58739636E-01 0.25376556E+03</pdfrwt>
<totfact> 0.26981325E+04</totfact>
</mgrwt>
</event>
<event>
 4    1  0.4349106E+000  0.2548624E+03  0.7546771E-02  0.1110270E+00
         21   -1    0    0  501  502  0.00000000000E+00  0.00000000000E+00  0.71779555700E+03  0.71779555700E+03  0.00000000000E+00 0. -1.
         21   -1    0    0  502  503 -0.00000000000E+00 -0.00000000000E+00 -0.95041400526E+02  0.95041400526E+02  0.00000000000E+00 0.  1.
          6    1    1    2  501    0  0.97897348514E+02 -0.15950529361E+03  0.40029497851E+03  0.47454283196E+03  0.17300000000E+03 0.  1.
         -6    1    1    2    0  503 -0.97897348514E+02  0.15950529361E+03  0.22245917796E+03  0.33829412557E+03  0.17300000000E+03 0.  1.
<mgrwt>
<rscale>  2 0.25486237E+03</rscale>
<asrwt>0</asrwt>
<pdfrwt beam="1">  1       21 0.11043008E+00 0.25486237E+03</pdfrwt>
<pdfrwt beam="2">  1       21 0.14621754E-01 0.25486237E+03</pdfrwt>
<totfact> 0.25708791E+04</totfact>
</mgrwt>
</event>
<event>
 4    1  0.4349106E+000  0.1868452E+03  0.7546771E-02  0.1161338E+00
         21   -1    0    0  503  502  0.00000000000E+00  0.00000000000E+00  0.12290032129E+03  0.12290032129E+03  0.00000000000E+00 0. -1.
         21   -1    0    0  501  503 -0.00000000000E+00 -0.00000000000E+00 -0.53534417321E+03  0.53534417321E+03  0.00000000000E+00 0. -1.
          6    1    1    2  501    0  0.19861127286E+02 -0.67732349482E+02 -0.43170958274E+03  0.47040865147E+03  0.17300000000E+03 0. -1.
         -6    1    1    2    0  502 -0.19861127286E+02  0.67732349482E+02  0.19265730830E+02  0.18783584303E+03  0.17300000000E+03 0. -1.
<mgrwt>
<rscale>  2 0.18684522E+03</rscale>
<asrwt>0</asrwt>
<pdfrwt beam="1">  1       21 0.18907742E-01 0.18684522E+03</pdfrwt>
<pdfrwt beam="2">  1       21 0.82360642E-01 0.18684522E+03</pdfrwt>
<totfact> 0.33103541E+04</totfact>
</mgrwt>
</event>
<event>
 4    1  0.4349106E+000  0.3849329E+03  0.7546771E-02  0.1049125E+00
         21   -1    0    0  501  502  0.00000000000E+00  0.00000000000E+00  0.10759284890E+03  0.10759284890E+03  0.00000000000E+00 0.  1.
         21   -1    0    0  502  503 -0.00000000000E+00 -0.00000000000E+00 -0.13911176059E+04  0.13911176059E+04  0.00000000000E+00 0. -1.
          6    1    1    2  501    0 -0.26110108780E+03 -0.22376455986E+03 -0.71680314079E+03  0.81362159444E+03  0.17300000000E+03 0.  1.
         -6    1    1    2    0  503  0.26110108780E+03  0.22376455986E+03 -0.56672161621E+03  0.68508886035E+03  0.17300000000E+03 0. -1.
<mgrwt>
<rscale>  2 0.38493292E+03</rscale>
<asrwt>0</asrwt>
<pdfrwt beam="1">  1       21 0.16552747E-01 0.38493292E+03</pdfrwt>
<pdfrwt beam="2">  1       21 0.21401808E+00 0.38493292E+03</pdfrwt>
<totfact> 0.31366982E+03</totfact>
</mgrwt>
</event>
<event>
 4    1  0.4349106E+000  0.2048836E+03  0.7546771E-02  0.1145683E+00
         21   -1    0    0  501  502  0.00000000000E+00  0.00000000000E+00  0.91597181190E+02  0.91597181190E+02  0.00000000000E+00 0. -1.
         21   -1    0    0  502  503 -0.00000000000E+00 -0.00000000000E+00 -0.46648134543E+03  0.46648134543E+03  0.00000000000E+00 0. -1.
          6    1    1    2  501    0 -0.34182591795E+02  0.10430648527E+03 -0.15044637450E+03  0.25418773387E+03  0.17300000000E+03 0. -1.
         -6    1    1    2    0  503  0.34182591795E+02 -0.10430648527E+03 -0.22443778974E+03  0.30389079275E+03  0.17300000000E+03 0. -1.
<mgrwt>
<rscale>  2 0.20488361E+03</rscale>
<asrwt>0</asrwt>
<pdfrwt beam="1">  1       21 0.14091874E-01 0.20488361E+03</pdfrwt>
<pdfrwt beam="2">  1       21 0.71766362E-01 0.20488361E+03</pdfrwt>
<totfact> 0.76637388E+04</totfact>
</mgrwt>
</event>
<event>
 4    1  0.4349106E+000  0.1742251E+03  0.7546771E-02  0.1173512E+00
         21   -1    0    0  501  502  0.00000000000E+00  0.00000000000E+00  0.81277059696E+03  0.81277059696E+03  0.00000000000E+00 0. -1.
         21   -1    0    0  502  503 -0.00000000000E+00 -0.00000000000E+00 -0.63447467585E+02  0.63447467585E+02  0.00000000000E+00 0. -1.
          6    1    1    2  501    0  0.11660754286E+02  0.17011640540E+02  0.65565811578E+03  0.67841133090E+03  0.17300000000E+03 0. -1.
         -6    1    1    2    0  503 -0.11660754286E+02 -0.17011640540E+02  0.93665013597E+02  0.19780673365E+03  0.17300000000E+03 0. -1.
<mgrwt>
<rscale>  2 0.17422505E+03</rscale>
<asrwt>0</asrwt>
<pdfrwt beam="1">  1       21 0.12504162E+00 0.17422505E+03</pdfrwt>
<pdfrwt beam="2">  1       21 0.97611494E-02 0.17422505E+03</pdfrwt>
<totfact> 0.40779853E+04</totfact>
</mgrwt>
</event>
<event>
 4    1  0.4349106E+000  0.1811271E+03  0.7546771E-02  0.1166717E+00
         21   -1    0    0  501  502  0.00000000000E+00  0.00000000000E+00  0.31356055283E+03  0.31356055283E+03  0.00000000000E+00 0.  1.
         21   -1    0    0  502  503 -0.00000000000E+00 -0.00000000000E+00 -0.20241331703E+03  0.20241331703E+03  0.00000000000E+00 0.  1.
          6    1    1    2  501    0 -0.53217651224E+02  0.67754622604E+01  0.23488849753E+03  0.29661360650E+03  0.17300000000E+03 0.  1.
         -6    1    1    2    0  503  0.53217651224E+02 -0.67754622604E+01 -0.12374126172E+03  0.21936026336E+03  0.17300000000E+03 0.  1.
<mgrwt>
<rscale>  2 0.18112710E+03</rscale>
<asrwt>0</asrwt>
<pdfrwt beam="1">  1       21 0.48240085E-01 0.18112710E+03</pdfrwt>
<pdfrwt beam="2">  1       21 0.31140510E-01 0.18112710E+03</pdfrwt>
<totfact> 0.40905041E+04</totfact>
</mgrwt>
</event>
<event>
 4    1  0.4349106E+000  0.2766230E+03  0.7546771E-02  0.1097548E+00
         21   -1    0    0  501  502  0.00000000000E+00  0.00000000000E+00  0.13822425186E+03  0.13822425186E+03  0.00000000000E+00 0. -1.
         21   -1    0    0  502  503 -0.00000000000E+00 -0.00000000000E+00 -0.90454747343E+03  0.90454747343E+03  0.00000000000E+00 0.  1.
          6    1    1    2  501    0  0.13629788965E+03 -0.16737429163E+03 -0.58397775204E+02  0.28271994689E+03  0.17300000000E+03 0. -1.
         -6    1    1    2    0  503 -0.13629788965E+03  0.16737429163E+03 -0.70792544637E+03  0.76005177840E+03  0.17300000000E+03 0.  1.
<mgrwt>
<rscale>  2 0.27662297E+03</rscale>
<asrwt>0</asrwt>
<pdfrwt beam="1">  1       21 0.21265270E-01 0.27662297E+03</pdfrwt>
<pdfrwt beam="2">  1       21 0.13916114E+00 0.27662297E+03</pdfrwt>
<totfact> 0.70694113E+03</totfact>
</mgrwt>
</event>
<event>
 4    1  0.4349106E+000  0.2389397E+03  0.7546771E-02  0.1120501E+00
         21   -1    0    0  503  502  0.00000000000E+00  0.00000000000E+00  0.14758247109E+03  0.14758247109E+03  0.00000000000E+00 0.  1.
         21   -1    0    0  501  503 -0.00000000000E+00 -0.00000000000E+00 -0.45016799411E+03  0.45016799411E+03  0.00000000000E+00 0.  1.
          6    1    1    2  501    0 -0.35877784285E+02  0.16086010116E+03 -0.26338313534E+03  0.35561617445E+03  0.17300000000E+03 0.  1.
         -6    1    1    2    0  502  0.35877784285E+02 -0.16086010116E+03 -0.39202387683E+02  0.24213429074E+03  0.17300000000E+03 0.  1.
<mgrwt>
<rscale>  2 0.23893972E+03</rscale>
<asrwt>0</asrwt>
<pdfrwt beam="1">  1       21 0.22704996E-01 0.23893972E+03</pdfrwt>
<pdfrwt beam="2">  1       21 0.69256615E-01 0.23893972E+03</pdfrwt>
<totfact> 0.33704697E+04</totfact>
</mgrwt>
</event>
<event>
 4    1  0.4349106E+000  0.1840295E+03  0.7546771E-02  0.1163959E+00
         21   -1    0    0  503  502  0.00000000000E+00  0.00000000000E+00  0.51267630506E+03  0.51267630506E+03  0.00000000000E+00 0. -1.
         21   -1    0    0  501  503 -0.00000000000E+00 -0.00000000000E+00 -0.76140184668E+02  0.76140184668E+02  0.00000000000E+00 0. -1.
          6    1    1    2  501    0  0.82210951404E+01 -0.62211624123E+02  0.11114097913E+03  0.21498648754E+03  0.17300000000E+03 0. -1.
         -6    1    1    2    0  502 -0.82210951404E+01  0.62211624123E+02  0.32539514127E+03  0.37383000220E+03  0.17300000000E+03 0. -1.
<mgrwt>
<rscale>  2 0.18402954E+03</rscale>
<asrwt>0</asrwt>
<pdfrwt beam="1">  1       21 0.78873275E-01 0.18402954E+03</pdfrwt>
<pdfrwt beam="2">  1       21 0.11713875E-01 0.18402954E+03</pdfrwt>
<totfact> 0.87314962E+04</totfact>
</mgrwt>
</event>
<event>
 4    1  0.4349106E+000  0.1940194E+03  0.7546771E-02  0.1154885E+00
         21   -1    0    0  503  502  0.00000000000E+00  0.00000000000E+00  0.37744535631E+03  0.37744535631E+03  0.00000000000E+00 0.  1.
         21   -1    0    0  501  503 -0.00000000000E+00 -0.00000000000E+00 -0.10517053045E+03  0.10517053045E+03  0.00000000000E+00 0.  1.
          6    1    1    2  501    0 -0.84068658839E+02 -0.25436045699E+02  0.81265596548E+02  0.21035120395E+03  0.17300000000E+03 0.  1.
         -6    1    1    2    0  502  0.84068658839E+02  0.25436045699E+02  0.19100922931E+03  0.27226468281E+03  0.17300000000E+03 0.  1.
<mgrwt>
<rscale>  2 0.19401941E+03</rscale>
<asrwt>0</asrwt>
<pdfrwt beam="1">  1       21 0.58068516E-01 0.19401941E+03</pdfrwt>
<pdfrwt beam="2">  1       21 0.16180082E-01 0.19401941E+03</pdfrwt>
<totfact> 0.94894654E+04</totfact>
</mgrwt>
</event>
<event>
 4    1  0.4349106E+000  0.1753305E+03  0.7546771E-02  0.1172400E+00
         21   -1    0    0  503  502  0.00000000000E+00  0.00000000000E+00  0.35616964809E+03  0.35616964809E+03  0.00000000000E+00 0. -1.
         21   -1    0    0  501  503 -0.00000000000E+00 -0.00000000000E+00 -0.10942160040E+03  0.10942160040E+03  0.00000000000E+00 0. -1.
          6    1    1    2  501    0  0.19793322677E+01  0.28422875173E+02  0.16383769509E+02  0.17609430852E+03  0.17300000000E+03 0. -1.
         -6    1    1    2    0  502 -0.19793322677E+01 -0.28422875173E+02  0.23036427819E+03  0.28949693997E+03  0.17300000000E+03 0. -1.
<mgrwt>
<rscale>  2 0.17533048E+03</rscale>
<asrwt>0</asrwt>
<pdfrwt beam="1">  1       21 0.54795330E-01 0.17533048E+03</pdfrwt>
<pdfrwt beam="2">  1       21 0.16834093E-01 0.17533048E+03</pdfrwt>
<totfact> 0.10052983E+05</totfact>
</mgrwt>
</event>
<event>
 4    1  0.4349106E+000  0.1733946E+03  0.7546771E-02  0.1174353E+00
         21   -1    0    0  503  502  0.00000000000E+00  0.00000000000E+00  0.48120761066E+03  0.48120761066E+03  0.00000000000E+00 0.  1.
         21   -1    0    0  501  503 -0.00000000000E+00 -0.00000000000E+00 -0.11344260201E+03  0.11344260201E+03  0.00000000000E+00 0.  1.
          6    1    1    2  501    0 -0.27582131686E+01 -0.11360956069E+02 -0.15400754796E+02  0.17407717343E+03  0.17300000000E+03 0.  1.
         -6    1    1    2    0  502  0.27582131686E+01  0.11360956069E+02  0.38316576344E+03  0.42057303924E+03  0.17300000000E+03 0.  1.
<mgrwt>
<rscale>  2 0.17339458E+03</rscale>
<asrwt>0</asrwt>
<pdfrwt beam="1">  1       21 0.74031939E-01 0.17339458E+03</pdfrwt>
<pdfrwt beam="2">  1       21 0.17452708E-01 0.17339458E+03</pdfrwt>
<totfact> 0.49107340E+04</totfact>
</mgrwt>
</event>
<event>
 4    1  0.4349106E+000  0.1968743E+03  0.7546771E-02  0.1152403E+00
         21   -1    0    0  503  502  0.00000000000E+00  0.00000000000E+00  0.82059231955E+03  0.82059231955E+03  0.00000000000E+00 0.  1.
         21   -1    0    0  501  503 -0.00000000000E+00 -0.00000000000E+00 -0.54751980037E+02  0.54751980037E+02  0.00000000000E+00 0.  1.
          6    1    1    2  501    0  0.94329576244E+01 -0.93496106759E+02  0.22073465071E+03  0.29577574054E+03  0.17300000000E+03 0.  1.
         -6    1    1    2    0  502 -0.94329576244E+01  0.93496106759E+02  0.54510568880E+03  0.57956855904E+03  0.17300000000E+03 0.  1.
<mgrwt>
<rscale>  2 0.19687433E+03</rscale>
<asrwt>0</asrwt>
<pdfrwt beam="1">  1       21 0.12624496E+00 0.19687433E+03</pdfrwt>
<pdfrwt beam="2">  1       21 0.84233821E-02 0.19687433E+03</pdfrwt>
<totfact> 0.50923732E+04</totfact>
</mgrwt>
</event>
<event>
 4    1  0.4349106E+000  0.2394889E+03  0.7546771E-02  0.1120134E+00
         21   -1    0    0  501  502  0.00000000000E+00  0.00000000000E+00  0.23028972027E+04  0.23028972027E+04  0.00000000000E+00 0. -1.
         21   -1    0    0  502  503 -0.00000000000E+00 -0.00000000000E+00 -0.11018946142E+03  0.11018946142E+03  0.00000000000E+00 0.  1.
          6    1    1    2  501    0 -0.16435354021E+03  0.20343238323E+02  0.21578207206E+04  0.21710700578E+04  0.17300000000E+03 0. -1.
         -6    1    1    2    0  503  0.16435354021E+03 -0.20343238323E+02  0.34887020665E+02  0.24201660632E+03  0.17300000000E+03 0.  1.
<mgrwt>
<rscale>  2 0.23948890E+03</rscale>
<asrwt>0</asrwt>
<pdfrwt beam="1">  1       21 0.35429184E+00 0.23948890E+03</pdfrwt>
<pdfrwt beam="2">  1       21 0.16952227E-01 0.23948890E+03</pdfrwt>
<totfact> 0.48440029E+02</totfact>
</mgrwt>
</event>
<event>
 4    1  0.4349106E+000  0.3077900E+03  0.7546771E-02  0.1081410E+00
         21   -1    0    0  501  502  0.00000000000E+00  0.00000000000E+00  0.10232696426E+04  0.10232696426E+04  0.00000000000E+00 0.  1.
         21   -1    0    0  502  503 -0.00000000000E+00 -0.00000000000E+00 -0.95931588316E+02  0.95931588316E+02  0.00000000000E+00 0. -1.
          6    1    1    2  501    0  0.20113836657E+03  0.15604185443E+03  0.56826077349E+03  0.64626233801E+03  0.17300000000E+03 0. -1.
         -6    1    1    2    0  503 -0.20113836657E+03 -0.15604185443E+03  0.35907728079E+03  0.47293889290E+03  0.17300000000E+03 0.  1.
<mgrwt>
<rscale>  2 0.30779003E+03</rscale>
<asrwt>0</asrwt>
<pdfrwt beam="1">  1       21 0.15742609E+00 0.30779003E+03</pdfrwt>
<pdfrwt beam="2">  1       21 0.14758707E-01 0.30779003E+03</pdfrwt>
<totfact> 0.98939673E+03</totfact>
</mgrwt>
</event>
<event>
 4    1  0.4349106E+000  0.1776787E+03  0.7546771E-02  0.1170069E+00
         21   -1    0    0  501  502  0.00000000000E+00  0.00000000000E+00  0.28210345440E+03  0.28210345440E+03  0.00000000000E+00 0.  1.
         21   -1    0    0  502  503 -0.00000000000E+00 -0.00000000000E+00 -0.56568493064E+03  0.56568493064E+03  0.00000000000E+00 0.  1.
          6    1    1    2  501    0 -0.34661307346E+01 -0.40357261993E+02  0.23786609166E+03  0.29690065715E+03  0.17300000000E+03 0.  1.
         -6    1    1    2    0  503  0.34661307346E+01  0.40357261993E+02 -0.52144756790E+03  0.55088772788E+03  0.17300000000E+03 0.  1.
<mgrwt>
<rscale>  2 0.17767871E+03</rscale>
<asrwt>0</asrwt>
<pdfrwt beam="1">  1       21 0.43400532E-01 0.17767871E+03</pdfrwt>
<pdfrwt beam="2">  1       21 0.87028451E-01 0.17767871E+03</pdfrwt>
<totfact> 0.58612244E+03</totfact>
</mgrwt>
</event>
<event>
 4    1  0.4349106E+000  0.2551027E+03  0.7546771E-02  0.1110122E+00
         21   -1    0    0  501  502  0.00000000000E+00  0.00000000000E+00  0.42194587727E+03  0.42194587727E+03  0.00000000000E+00 0.  1.
         21   -1    0    0  502  503 -0.00000000000E+00 -0.00000000000E+00 -0.15569490720E+03  0.15569490720E+03  0.00000000000E+00 0. -1.
          6    1    1    2  501    0  0.17801093162E+03 -0.58826187494E+02  0.10512601304E+03  0.27591464392E+03  0.17300000000E+03 0.  1.
         -6    1    1    2    0  503 -0.17801093162E+03  0.58826187494E+02  0.16112495704E+03  0.30172614055E+03  0.17300000000E+03 0. -1.
<mgrwt>
<rscale>  2 0.25510275E+03</rscale>
<asrwt>0</asrwt>
<pdfrwt beam="1">  1       21 0.64914750E-01 0.25510275E+03</pdfrwt>
<pdfrwt beam="2">  1       21 0.23953063E-01 0.25510275E+03</pdfrwt>
<totfact> 0.34851963E+04</totfact>
</mgrwt>
</event>
<event>
 4    1  0.4349106E+000  0.2193733E+03  0.7546771E-02  0.1134351E+00
         21   -1    0    0  501  502  0.00000000000E+00  0.00000000000E+00  0.38074359297E+03  0.38074359297E+03  0.00000000000E+00 0. -1.
         21   -1    0    0  502  503 -0.00000000000E+00 -0.00000000000E+00 -0.14211033357E+03  0.14211033357E+03  0.00000000000E+00 0. -1.
          6    1    1    2  501    0  0.47085021418E+02  0.12640666656E+03  0.20624851405E+03  0.30110312875E+03  0.17300000000E+03 0. -1.
         -6    1    1    2    0  503 -0.47085021418E+02 -0.12640666656E+03  0.32384745347E+02  0.22175079780E+03  0.17300000000E+03 0. -1.
<mgrwt>
<rscale>  2 0.21937330E+03</rscale>
<asrwt>0</asrwt>
<pdfrwt beam="1">  1       21 0.58575937E-01 0.21937330E+03</pdfrwt>
<pdfrwt beam="2">  1       21 0.21863128E-01 0.21937330E+03</pdfrwt>
<totfact> 0.52616619E+04</totfact>
</mgrwt>
</event>
<event>
 4    1  0.4349106E+000  0.1765020E+03  0.7546771E-02  0.1171232E+00
         21   -1    0    0  501  502  0.00000000000E+00  0.00000000000E+00  0.19228324105E+02  0.19228324105E+02  0.00000000000E+00 0.  1.
         21   -1    0    0  502  503 -0.00000000000E+00 -0.00000000000E+00 -0.23477545992E+04  0.23477545992E+04  0.00000000000E+00 0.  1.
          6    1    1    2  501    0  0.30174653641E+02  0.17704820864E+02 -0.50541795390E+03  0.53535061271E+03  0.17300000000E+03 0.  1.
         -6    1    1    2    0  503 -0.30174653641E+02 -0.17704820864E+02 -0.18231083212E+04  0.18316323106E+04  0.17300000000E+03 0.  1.
<mgrwt>
<rscale>  2 0.17650204E+03</rscale>
<asrwt>0</asrwt>
<pdfrwt beam="1">  1       21 0.29582052E-02 0.17650204E+03</pdfrwt>
<pdfrwt beam="2">  1       21 0.36119283E+00 0.17650204E+03</pdfrwt>
<totfact> 0.99215481E+03</totfact>
</mgrwt>
</event>
<event>
 4    1  0.4349106E+000  0.2132640E+03  0.7546771E-02  0.1139007E+00
         21   -1    0    0  503  502  0.00000000000E+00  0.00000000000E+00  0.12163103373E+03  0.12163103373E+03  0.00000000000E+00 0.  1.
         21   -1    0    0  501  503 -0.00000000000E+00 -0.00000000000E+00 -0.62939492236E+03  0.62939492236E+03  0.00000000000E+00 0.  1.
          6    1    1    2  501    0 -0.98022373100E+02  0.77098387351E+02 -0.49311907815E+03  0.53725968785E+03  0.17300000000E+03 0.  1.
         -6    1    1    2    0  502  0.98022373100E+02 -0.77098387351E+02 -0.14644810486E+02  0.21376626823E+03  0.17300000000E+03 0.  1.
<mgrwt>
<rscale>  2 0.21326403E+03</rscale>
<asrwt>0</asrwt>
<pdfrwt beam="1">  1       21 0.18712467E-01 0.21326403E+03</pdfrwt>
<pdfrwt beam="2">  1       21 0.96829988E-01 0.21326403E+03</pdfrwt>
<totfact> 0.22863139E+04</totfact>
</mgrwt>
</event>
<event>
 4    1  0.4349106E+000  0.2342052E+03  0.7546771E-02  0.1123714E+00
         21   -1    0    0  501  502  0.00000000000E+00  0.00000000000E+00  0.35667597328E+02  0.35667597328E+02  0.00000000000E+00 0.  1.
         21   -1    0    0  502  503 -0.00000000000E+00 -0.00000000000E+00 -0.17195112009E+04  0.17195112009E+04  0.00000000000E+00 0.  1.
          6    1    1    2  501    0  0.14886475830E+03  0.52558277983E+02 -0.55669038762E+03  0.60395055801E+03  0.17300000000E+03 0.  1.
         -6    1    1    2    0  503 -0.14886475830E+03 -0.52558277983E+02 -0.11271532160E+04  0.11512282402E+04  0.17300000000E+03 0.  1.
<mgrwt>
<rscale>  2 0.23420523E+03</rscale>
<asrwt>0</asrwt>
<pdfrwt beam="1">  1       21 0.54873227E-02 0.23420523E+03</pdfrwt>
<pdfrwt beam="2">  1       21 0.26454018E+00 0.23420523E+03</pdfrwt>
<totfact> 0.12098268E+04</totfact>
</mgrwt>
</event>
<event>
 4    1  0.4349106E+000  0.1786542E+03  0.7546771E-02  0.1169112E+00
         21   -1    0    0  503  502  0.00000000000E+00  0.00000000000E+00  0.22162233166E+04  0.22162233166E+04  0.00000000000E+00 0.  1.
         21   -1    0    0  501  503 -0.00000000000E+00 -0.00000000000E+00 -0.60195531690E+02  0.60195531690E+02  0.00000000000E+00 0. -1.
          6    1    1    2  501    0  0.37320852628E+02 -0.24402526747E+02  0.85255294423E+02  0.19795402138E+03  0.17300000000E+03 0. -1.
         -6    1    1    2    0  502 -0.37320852628E+02  0.24402526747E+02  0.20707724905E+04  0.20784648269E+04  0.17300000000E+03 0.  1.
<mgrwt>
<rscale>  2 0.17865422E+03</rscale>
<asrwt>0</asrwt>
<pdfrwt beam="1">  1       21 0.34095737E+00 0.17865422E+03</pdfrwt>
<pdfrwt beam="2">  1       21 0.92608528E-02 0.17865422E+03</pdfrwt>
<totfact> 0.18732671E+03</totfact>
</mgrwt>
</event>
<event>
 4    1  0.4349106E+000  0.1869861E+03  0.7546771E-02  0.1161208E+00
         21   -1    0    0  503  502  0.00000000000E+00  0.00000000000E+00  0.83116390436E+02  0.83116390436E+02  0.00000000000E+00 0. -1.
         21   -1    0    0  501  503 -0.00000000000E+00 -0.00000000000E+00 -0.42533264001E+03  0.42533264001E+03  0.00000000000E+00 0. -1.
          6    1    1    2  501    0 -0.66177984838E+02 -0.25598032781E+02 -0.19775274548E+03  0.27215791979E+03  0.17300000000E+03 0. -1.
         -6    1    1    2    0  502  0.66177984838E+02  0.25598032781E+02 -0.14446350409E+03  0.23629111065E+03  0.17300000000E+03 0. -1.
<mgrwt>
<rscale>  2 0.18698606E+03</rscale>
<asrwt>0</asrwt>
<pdfrwt beam="1">  1       21 0.12787137E-01 0.18698606E+03</pdfrwt>
<pdfrwt beam="2">  1       21 0.65435791E-01 0.18698606E+03</pdfrwt>
<totfact> 0.11271226E+05</totfact>
</mgrwt>
</event>
<event>
 4    1  0.4349106E+000  0.3110448E+03  0.7546771E-02  0.1079846E+00
         21   -1    0    0  501  502  0.00000000000E+00  0.00000000000E+00  0.29505353211E+03  0.29505353211E+03  0.00000000000E+00 0. -1.
         21   -1    0    0  502  503 -0.00000000000E+00 -0.00000000000E+00 -0.33150886216E+03  0.33150886216E+03  0.00000000000E+00 0.  1.
          6    1    1    2  501    0 -0.88604653052E+02  0.24283544981E+03  0.14447014974E+02  0.31138008361E+03  0.17300000000E+03 0.  1.
         -6    1    1    2    0  503  0.88604653052E+02 -0.24283544981E+03 -0.50902345019E+02  0.31518231066E+03  0.17300000000E+03 0. -1.
<mgrwt>
<rscale>  2 0.31104476E+03</rscale>
<asrwt>0</asrwt>
<pdfrwt beam="1">  1       21 0.45392851E-01 0.31104476E+03</pdfrwt>
<pdfrwt beam="2">  1       21 0.51001364E-01 0.31104476E+03</pdfrwt>
<totfact> 0.16031407E+04</totfact>
</mgrwt>
</event>
<event>
 4    1  0.4349106E+000  0.1790313E+03  0.7546771E-02  0.1168744E+00
         21   -1    0    0  501  502  0.00000000000E+00  0.00000000000E+00  0.78554731373E+02  0.78554731373E+02  0.00000000000E+00 0. -1.
         21   -1    0    0  502  503 -0.00000000000E+00 -0.00000000000E+00 -0.46747865497E+03  0.46747865497E+03  0.00000000000E+00 0. -1.
          6    1    1    2  501    0  0.72148009252E+01 -0.45510037440E+02 -0.97097338606E+02  0.20366666400E+03  0.17300000000E+03 0.  1.
         -6    1    1    2    0  503 -0.72148009252E+01  0.45510037440E+02 -0.29182658499E+03  0.34236672234E+03  0.17300000000E+03 0.  1.
<mgrwt>
<rscale>  2 0.17903133E+03</rscale>
<asrwt>0</asrwt>
<pdfrwt beam="1">  1       21 0.12085344E-01 0.17903133E+03</pdfrwt>
<pdfrwt beam="2">  1       21 0.71919791E-01 0.17903133E+03</pdfrwt>
<totfact> 0.10166546E+05</totfact>
</mgrwt>
</event>
<event>
 4    1  0.4349106E+000  0.2363314E+03  0.7546771E-02  0.1122261E+00
         21   -1    0    0  503  502  0.00000000000E+00  0.00000000000E+00  0.51377104962E+02  0.51377104962E+02  0.00000000000E+00 0. -1.
         21   -1    0    0  501  503 -0.00000000000E+00 -0.00000000000E+00 -0.14281958822E+04  0.14281958822E+04  0.00000000000E+00 0.  1.
          6    1    1    2  501    0 -0.14388345119E+03 -0.72257047759E+02 -0.32687898247E+03  0.40336385269E+03  0.17300000000E+03 0. -1.
         -6    1    1    2    0  502  0.14388345119E+03  0.72257047759E+02 -0.10499397948E+04  0.10762091345E+04  0.17300000000E+03 0.  1.
<mgrwt>
<rscale>  2 0.23633140E+03</rscale>
<asrwt>0</asrwt>
<pdfrwt beam="1">  1       21 0.79041707E-02 0.23633140E+03</pdfrwt>
<pdfrwt beam="2">  1       21 0.21972242E+00 0.23633140E+03</pdfrwt>
<totfact> 0.11951033E+04</totfact>
</mgrwt>
</event>
<event>
 4    1  0.4349106E+000  0.1850378E+03  0.7546771E-02  0.1163015E+00
         21   -1    0    0  503  502  0.00000000000E+00  0.00000000000E+00  0.42049011218E+03  0.42049011218E+03  0.00000000000E+00 0.  1.
         21   -1    0    0  501  503 -0.00000000000E+00 -0.00000000000E+00 -0.19702647994E+03  0.19702647994E+03  0.00000000000E+00 0. -1.
          6    1    1    2  501    0 -0.59956903864E+02  0.26742381985E+02 -0.12477052907E+03  0.22317408057E+03  0.17300000000E+03 0. -1.
         -6    1    1    2    0  502  0.59956903864E+02 -0.26742381985E+02  0.34823416131E+03  0.39434251156E+03  0.17300000000E+03 0.  1.
<mgrwt>
<rscale>  2 0.18503779E+03</rscale>
<asrwt>0</asrwt>
<pdfrwt beam="1">  1       21 0.64690786E-01 0.18503779E+03</pdfrwt>
<pdfrwt beam="2">  1       21 0.30311766E-01 0.18503779E+03</pdfrwt>
<totfact> 0.23099880E+04</totfact>
</mgrwt>
</event>
<event>
 4    1  0.4349106E+000  0.3355533E+03  0.7546771E-02  0.1068706E+00
         21   -1    0    0  503  502  0.00000000000E+00  0.00000000000E+00  0.11204744060E+04  0.11204744060E+04  0.00000000000E+00 0.  1.
         21   -1    0    0  501  503 -0.00000000000E+00 -0.00000000000E+00 -0.93596206598E+03  0.93596206598E+03  0.00000000000E+00 0. -1.
          6    1    1    2  501    0 -0.21298071267E+03 -0.19314818369E+03 -0.87919785915E+03  0.94105519518E+03  0.17300000000E+03 0. -1.
         -6    1    1    2    0  502  0.21298071267E+03  0.19314818369E+03  0.10637101992E+04  0.11153812768E+04  0.17300000000E+03 0.  1.
<mgrwt>
<rscale>  2 0.33555328E+03</rscale>
<asrwt>0</asrwt>
<pdfrwt beam="1">  1       21 0.17238068E+00 0.33555328E+03</pdfrwt>
<pdfrwt beam="2">  1       21 0.14399416E+00 0.33555328E+03</pdfrwt>
<totfact> 0.58261604E+01</totfact>
</mgrwt>
</event>
<event>
 4    1  0.4349106E+000  0.1854829E+03  0.7546771E-02  0.1162600E+00
         21   -1    0    0  501  502  0.00000000000E+00  0.00000000000E+00  0.27666978810E+03  0.27666978810E+03  0.00000000000E+00 0. -1.
         21   -1    0    0  502  503 -0.00000000000E+00 -0.00000000000E+00 -0.17417518951E+03  0.17417518951E+03  0.00000000000E+00 0.  1.
          6    1    1    2  501    0  0.64155614372E+02 -0.18946730616E+02  0.17181418677E+03  0.25283203166E+03  0.17300000000E+03 0.  1.
         -6    1    1    2    0  503 -0.64155614372E+02  0.18946730616E+02 -0.69319588187E+02  0.19801294595E+03  0.17300000000E+03 0.  1.
<mgrwt>
<rscale>  2 0.18548294E+03</rscale>
<asrwt>0</asrwt>
<pdfrwt beam="1">  1       21 0.42564583E-01 0.18548294E+03</pdfrwt>
<pdfrwt beam="2">  1       21 0.26796183E-01 0.18548294E+03</pdfrwt>
<totfact> 0.70628478E+04</totfact>
</mgrwt>
</event>
<event>
 4    1  0.4349106E+000  0.2361822E+03  0.7546771E-02  0.1122363E+00
         21   -1    0    0  501  502  0.00000000000E+00  0.00000000000E+00  0.38403412290E+03  0.38403412290E+03  0.00000000000E+00 0. -1.
         21   -1    0    0  502  503 -0.00000000000E+00 -0.00000000000E+00 -0.15062725256E+03  0.15062725256E+03  0.00000000000E+00 0.  1.
          6    1    1    2  501    0  0.12171983809E+03  0.10505864814E+03  0.16720018554E+03  0.28937508631E+03  0.17300000000E+03 0.  1.
         -6    1    1    2    0  503 -0.12171983809E+03 -0.10505864814E+03  0.66206684806E+02  0.24528628915E+03  0.17300000000E+03 0. -1.
<mgrwt>
<rscale>  2 0.23618221E+03</rscale>
<asrwt>0</asrwt>
<pdfrwt beam="1">  1       21 0.59082172E-01 0.23618221E+03</pdfrwt>
<pdfrwt beam="2">  1       21 0.23173424E-01 0.23618221E+03</pdfrwt>
<totfact> 0.45914805E+04</totfact>
</mgrwt>
</event>
<event>
 4    1  0.4349106E+000  0.1824478E+03  0.7546771E-02  0.1165455E+00
         21   -1    0    0  503  502  0.00000000000E+00  0.00000000000E+00  0.13757027177E+04  0.13757027177E+04  0.00000000000E+00 0. -1.
         21   -1    0    0  501  503 -0.00000000000E+00 -0.00000000000E+00 -0.24582737116E+02  0.24582737116E+02  0.00000000000E+00 0. -1.
          6    1    1    2  501    0  0.39539661522E+02 -0.42365402225E+02  0.58780137751E+03  0.61546541051E+03  0.17300000000E+03 0. -1.
         -6    1    1    2    0  502 -0.39539661522E+02  0.42365402225E+02  0.76331860312E+03  0.78482004435E+03  0.17300000000E+03 0. -1.
<mgrwt>
<rscale>  2 0.18244783E+03</rscale>
<asrwt>0</asrwt>
<pdfrwt beam="1">  1       21 0.21164651E+00 0.18244783E+03</pdfrwt>
<pdfrwt beam="2">  1       21 0.37819606E-02 0.18244783E+03</pdfrwt>
<totfact> 0.49116536E+04</totfact>
</mgrwt>
</event>
<event>
 4    1  0.4349106E+000  0.2106541E+03  0.7546771E-02  0.1141049E+00
         21   -1    0    0  501  502  0.00000000000E+00  0.00000000000E+00  0.29246365106E+02  0.29246365106E+02  0.00000000000E+00 0.  1.
         21   -1    0    0  502  503 -0.00000000000E+00 -0.00000000000E+00 -0.15225429543E+04  0.15225429543E+04  0.00000000000E+00 0.  1.
          6    1    1    2  501    0 -0.11143988564E+02  0.11967434878E+03 -0.79223429990E+03  0.81976235836E+03  0.17300000000E+03 0.  1.
         -6    1    1    2    0  503  0.11143988564E+02 -0.11967434878E+03 -0.70106228930E+03  0.73202696106E+03  0.17300000000E+03 0.  1.
<mgrwt>
<rscale>  2 0.21065407E+03</rscale>
<asrwt>0</asrwt>
<pdfrwt beam="1">  1       21 0.44994407E-02 0.21065407E+03</pdfrwt>
<pdfrwt beam="2">  1       21 0.23423738E+00 0.21065407E+03</pdfrwt>
<totfact> 0.26142013E+04</totfact>
</mgrwt>
</event>
<event>
 4    1  0.4349106E+000  0.2031533E+03  0.7546771E-02  0.1147105E+00
         21   -1    0    0  501  502  0.00000000000E+00  0.00000000000E+00  0.14592100424E+03  0.14592100424E+03  0.00000000000E+00 0.  1.
         21   -1    0    0  502  503 -0.00000000000E+00 -0.00000000000E+00 -0.41187167861E+03  0.41187167861E+03  0.00000000000E+00 0. -1.
          6    1    1    2  501    0 -0.84876994371E+02 -0.64328579894E+02  0.23131478108E+02  0.20446597674E+03  0.17300000000E+03 0.  1.
         -6    1    1    2    0  503  0.84876994371E+02  0.64328579894E+02 -0.28908215248E+03  0.35332670611E+03  0.17300000000E+03 0. -1.
<mgrwt>
<rscale>  2 0.20315332E+03</rscale>
<asrwt>0</asrwt>
<pdfrwt beam="1">  1       21 0.22449386E-01 0.20315332E+03</pdfrwt>
<pdfrwt beam="2">  1       21 0.63364872E-01 0.20315332E+03</pdfrwt>
<totfact> 0.42570584E+04</totfact>
</mgrwt>
</event>
<event>
 4    1  0.4349106E+000  0.1736038E+03  0.7546771E-02  0.1174141E+00
         21   -1    0    0  501  502  0.00000000000E+00  0.00000000000E+00  0.18336566985E+04  0.18336566985E+04  0.00000000000E+00 0.  1.
         21   -1    0    0  502  503 -0.00000000000E+00 -0.00000000000E+00 -0.23176416276E+02  0.23176416276E+02  0.00000000000E+00 0.  1.
          6    1    1    2  501    0  0.13584401308E+02 -0.49733728067E+01  0.14059175768E+04  0.14165953915E+04  0.17300000000E+03 0.  1.
         -6    1    1    2    0  503 -0.13584401308E+02  0.49733728067E+01  0.40456270542E+03  0.44023772330E+03  0.17300000000E+03 0.  1.
<mgrwt>
<rscale>  2 0.17360377E+03</rscale>
<asrwt>0</asrwt>
<pdfrwt beam="1">  1       21 0.28210092E+00 0.17360377E+03</pdfrwt>
<pdfrwt beam="2">  1       21 0.35656040E-02 0.17360377E+03</pdfrwt>
<totfact> 0.20943378E+04</totfact>
</mgrwt>
</event>
<event>
 4    1  0.4349106E+000  0.1923947E+03  0.7546771E-02  0.1156319E+00
         21   -1    0    0  501  502  0.00000000000E+00  0.00000000000E+00  0.74534167181E+03  0.74534167181E+03  0.00000000000E+00 0. -1.
         21   -1    0    0  502  503 -0.00000000000E+00 -0.00000000000E+00 -0.60486050060E+02  0.60486050060E+02  0.00000000000E+00 0.  1.
          6    1    1    2  501    0 -0.63350561847E+01  0.83944064175E+02  0.51286480261E+03  0.54776458867E+03  0.17300000000E+03 0. -1.
         -6    1    1    2    0  503  0.63350561847E+01 -0.83944064175E+02  0.17199081914E+03  0.25806313320E+03  0.17300000000E+03 0.  1.
<mgrwt>
<rscale>  2 0.19239475E+03</rscale>
<asrwt>0</asrwt>
<pdfrwt beam="1">  1       21 0.11466794E+00 0.19239475E+03</pdfrwt>
<pdfrwt beam="2">  1       21 0.93055467E-02 0.19239475E+03</pdfrwt>
<totfact> 0.54397624E+04</totfact>
</mgrwt>
</event>
<event>
 4    1  0.4349106E+000  0.1753009E+03  0.7546771E-02  0.1172430E+00
         21   -1    0    0  501  502  0.00000000000E+00  0.00000000000E+00  0.18114553979E+03  0.18114553979E+03  0.00000000000E+00 0. -1.
         21   -1    0    0  502  503 -0.00000000000E+00 -0.00000000000E+00 -0.28091938487E+03  0.28091938487E+03  0.00000000000E+00 0. -1.
          6    1    1    2  501    0 -0.79100332988E+01  0.27181477043E+02  0.95518337489E+02  0.19963505233E+03  0.17300000000E+03 0. -1.
         -6    1    1    2    0  503  0.79100332988E+01 -0.27181477043E+02 -0.19529218257E+03  0.26242987234E+03  0.17300000000E+03 0. -1.
<mgrwt>
<rscale>  2 0.17530089E+03</rscale>
<asrwt>0</asrwt>
<pdfrwt beam="1">  1       21 0.27868545E-01 0.17530089E+03</pdfrwt>
<pdfrwt beam="2">  1       21 0.43218367E-01 0.17530089E+03</pdfrwt>
<totfact> 0.63772394E+04</totfact>
</mgrwt>
</event>
<event>
 4    1  0.4349106E+000  0.2347080E+03  0.7546771E-02  0.1123369E+00
         21   -1    0    0  501  502  0.00000000000E+00  0.00000000000E+00  0.14203325087E+03  0.14203325087E+03  0.00000000000E+00 0.  1.
         21   -1    0    0  502  503 -0.00000000000E+00 -0.00000000000E+00 -0.16742691975E+04  0.16742691975E+04  0.00000000000E+00 0.  1.
          6    1    1    2  501    0  0.15738660994E+03  0.19705034263E+02  0.29924982483E+02  0.23660798368E+03  0.17300000000E+03 0.  1.
         -6    1    1    2    0  503 -0.15738660994E+03 -0.19705034263E+02 -0.15621609291E+04  0.15796944647E+04  0.17300000000E+03 0.  1.
<mgrwt>
<rscale>  2 0.23470797E+03</rscale>
<asrwt>0</asrwt>
<pdfrwt beam="1">  1       21 0.21851269E-01 0.23470797E+03</pdfrwt>
<pdfrwt beam="2">  1       21 0.25757988E+00 0.23470797E+03</pdfrwt>
<totfact> 0.11187950E+03</totfact>
</mgrwt>
</event>
<event>
 4    1  0.4349106E+000  0.2048676E+03  0.7546771E-02  0.1145696E+00
         21   -1    0    0  503  502  0.00000000000E+00  0.00000000000E+00  0.10210655910E+03  0.10210655910E+03  0.00000000000E+00 0.  1.
         21   -1    0    0  501  503 -0.00000000000E+00 -0.00000000000E+00 -0.60811096990E+03  0.60811096990E+03  0.00000000000E+00 0. -1.
          6    1    1    2  501    0 -0.26050683402E+01  0.10970382281E+03 -0.45515152674E+03  0.49913287551E+03  0.17300000000E+03 0. -1.
         -6    1    1    2    0  502  0.26050683402E+01 -0.10970382281E+03 -0.50852884054E+02  0.21108465348E+03  0.17300000000E+03 0.  1.
<mgrwt>
<rscale>  2 0.20486756E+03</rscale>
<asrwt>0</asrwt>
<pdfrwt beam="1">  1       21 0.15708701E-01 0.20486756E+03</pdfrwt>
<pdfrwt beam="2">  1       21 0.93555535E-01 0.20486756E+03</pdfrwt>
<totfact> 0.34389517E+04</totfact>
</mgrwt>
</event>
<event>
 4    1  0.4349106E+000  0.3823190E+03  0.7546771E-02  0.1050080E+00
         21   -1    0    0  503  502  0.00000000000E+00  0.00000000000E+00  0.14195464301E+03  0.14195464301E+03  0.00000000000E+00 0.  1.
         21   -1    0    0  501  503 -0.00000000000E+00 -0.00000000000E+00 -0.11189459996E+04  0.11189459996E+04  0.00000000000E+00 0.  1.
          6    1    1    2  501    0 -0.34092719130E+03 -0.27339989318E+01 -0.66656532462E+03  0.76842511444E+03  0.17300000000E+03 0.  1.
         -6    1    1    2    0  502  0.34092719130E+03  0.27339989318E+01 -0.31042603196E+03  0.49247552816E+03  0.17300000000E+03 0.  1.
<mgrwt>
<rscale>  2 0.38231901E+03</rscale>
<asrwt>0</asrwt>
<pdfrwt beam="1">  1       21 0.21839175E-01 0.38231901E+03</pdfrwt>
<pdfrwt beam="2">  1       21 0.17214554E+00 0.38231901E+03</pdfrwt>
<totfact> 0.35723353E+03</totfact>
</mgrwt>
</event>
<event>
 4    1  0.4349106E+000  0.1784460E+03  0.7546771E-02  0.1169316E+00
         21   -1    0    0  501  502  0.00000000000E+00  0.00000000000E+00  0.49362522594E+03  0.49362522594E+03  0.00000000000E+00 0.  1.
         21   -1    0    0  502  503 -0.00000000000E+00 -0.00000000000E+00 -0.66494319016E+02  0.66494319016E+02  0.00000000000E+00 0.  1.
          6    1    1    2  501    0 -0.61424069470E+01  0.43315674017E+02  0.26196468952E+03  0.31696762506E+03  0.17300000000E+03 0.  1.
         -6    1    1    2    0  503  0.61424069470E+01 -0.43315674017E+02  0.16516621740E+03  0.24315191989E+03  0.17300000000E+03 0.  1.
<mgrwt>
<rscale>  2 0.17844601E+03</rscale>
<asrwt>0</asrwt>
<pdfrwt beam="1">  1       21 0.75942340E-01 0.17844601E+03</pdfrwt>
<pdfrwt beam="2">  1       21 0.10229896E-01 0.17844601E+03</pdfrwt>
<totfact> 0.12115314E+05</totfact>
</mgrwt>
</event>
<event>
 4    1  0.4349106E+000  0.1831214E+03  0.7546771E-02  0.1164816E+00
         21   -1    0    0  503  502  0.00000000000E+00  0.00000000000E+00  0.51566604487E+03  0.51566604487E+03  0.00000000000E+00 0. -1.
         21   -1    0    0  501  503 -0.00000000000E+00 -0.00000000000E+00 -0.69055827665E+02  0.69055827665E+02  0.00000000000E+00 0. -1.
          6    1    1    2  501    0  0.60021690345E+02  0.13523086829E+01  0.15270890120E+03  0.23843959519E+03  0.17300000000E+03 0. -1.
         -6    1    1    2    0  502 -0.60021690345E+02 -0.13523086829E+01  0.29390131601E+03  0.34628227735E+03  0.17300000000E+03 0. -1.
<mgrwt>
<rscale>  2 0.18312136E+03</rscale>
<asrwt>0</asrwt>
<pdfrwt beam="1">  1       21 0.79333235E-01 0.18312136E+03</pdfrwt>
<pdfrwt beam="2">  1       21 0.10623974E-01 0.18312136E+03</pdfrwt>
<totfact> 0.10255622E+05</totfact>
</mgrwt>
</event>
<event>
 4    1  0.4349106E+000  0.2052004E+03  0.7546771E-02  0.1145424E+00
         21   -1    0    0  503  502  0.00000000000E+00  0.00000000000E+00  0.83243696965E+02  0.83243696965E+02  0.00000000000E+00 0. -1.
         21   -1    0    0  501  503 -0.00000000000E+00 -0.00000000000E+00 -0.11141844203E+04  0.11141844203E+04  0.00000000000E+00 0.  1.
          6    1    1    2  501    0  0.60875034532E+02 -0.92045819815E+02 -0.95787437973E+03  0.97960733465E+03  0.17300000000E+03 0.  1.
         -6    1    1    2    0  502 -0.60875034532E+02  0.92045819815E+02 -0.73066343631E+02  0.21782078263E+03  0.17300000000E+03 0. -1.
<mgrwt>
<rscale>  2 0.20520040E+03</rscale>
<asrwt>0</asrwt>
<pdfrwt beam="1">  1       21 0.12806723E-01 0.20520040E+03</pdfrwt>
<pdfrwt beam="2">  1       21 0.17141299E+00 0.20520040E+03</pdfrwt>
<totfact> 0.10785954E+04</totfact>
</mgrwt>
</event>
<event>
 4    1  0.4349106E+000  0.1898358E+03  0.7546771E-02  0.1158610E+00
         21   -1    0    0  501  502  0.00000000000E+00  0.00000000000E+00  0.14945433704E+03  0.14945433704E+03  0.00000000000E+00 0. -1.
         21   -1    0    0  502  503 -0.00000000000E+00 -0.00000000000E+00 -0.25045155267E+03  0.25045155267E+03  0.00000000000E+00 0.  1.
          6    1    1    2  501    0 -0.53470329981E+02 -0.57004814849E+02 -0.11919098643E+02  0.19020959497E+03  0.17300000000E+03 0. -1.
         -6    1    1    2    0  503  0.53470329981E+02  0.57004814849E+02 -0.89078116991E+02  0.20969629475E+03  0.17300000000E+03 0.  1.
<mgrwt>
<rscale>  2 0.18983578E+03</rscale>
<asrwt>0</asrwt>
<pdfrwt beam="1">  1       21 0.22992975E-01 0.18983578E+03</pdfrwt>
<pdfrwt beam="2">  1       21 0.38531008E-01 0.18983578E+03</pdfrwt>
<totfact> 0.11546394E+05</totfact>
</mgrwt>
</event>
<event>
 4    1  0.4349106E+000  0.1920559E+03  0.7546771E-02  0.1156620E+00
         21   -1    0    0  503  502  0.00000000000E+00  0.00000000000E+00  0.26289465448E+03  0.26289465448E+03  0.00000000000E+00 0.  1.
         21   -1    0    0  501  503 -0.00000000000E+00 -0.00000000000E+00 -0.15703691916E+03  0.15703691916E+03  0.00000000000E+00 0.  1.
          6    1    1    2  501    0 -0.18242787918E+02  0.81385879700E+02  0.12146494351E+03  0.22724258674E+03  0.17300000000E+03 0.  1.
         -6    1    1    2    0  502  0.18242787918E+02 -0.81385879700E+02 -0.15607208197E+02  0.19268898690E+03  0.17300000000E+03 0.  1.
<mgrwt>
<rscale>  2 0.19205588E+03</rscale>
<asrwt>0</asrwt>
<pdfrwt beam="1">  1       21 0.40445331E-01 0.19205588E+03</pdfrwt>
<pdfrwt beam="2">  1       21 0.24159526E-01 0.19205588E+03</pdfrwt>
<totfact> 0.95251874E+04</totfact>
</mgrwt>
</event>
<event>
 4    1  0.4349106E+000  0.2122857E+03  0.7546771E-02  0.1139769E+00
         21   -1    0    0  501  502  0.00000000000E+00  0.00000000000E+00  0.23006665564E+04  0.23006665564E+04  0.00000000000E+00 0. -1.
         21   -1    0    0  502  503 -0.00000000000E+00 -0.00000000000E+00 -0.14661523970E+03  0.14661523970E+03  0.00000000000E+00 0.  1.
          6    1    1    2  501    0 -0.75953984827E+02  0.96784374067E+02  0.22159976141E+04  0.22261425490E+04  0.17300000000E+03 0. -1.
         -6    1    1    2    0  503  0.75953984827E+02 -0.96784374067E+02 -0.61946297330E+02  0.22113924714E+03  0.17300000000E+03 0.  1.
<mgrwt>
<rscale>  2 0.21228571E+03</rscale>
<asrwt>0</asrwt>
<pdfrwt beam="1">  1       21 0.35394867E+00 0.21228571E+03</pdfrwt>
<pdfrwt beam="2">  1       21 0.22556192E-01 0.21228571E+03</pdfrwt>
<totfact> 0.29606182E+02</totfact>
</mgrwt>
</event>
<event>
 4    1  0.4349106E+000  0.1790669E+03  0.7546771E-02  0.1168709E+00
         21   -1    0    0  503  502  0.00000000000E+00  0.00000000000E+00  0.83624581337E+02  0.83624581337E+02  0.00000000000E+00 0. -1.
         21   -1    0    0  501  503 -0.00000000000E+00 -0.00000000000E+00 -0.41107820924E+03  0.41107820924E+03  0.00000000000E+00 0. -1.
          6    1    1    2  501    0  0.44662703691E+02  0.11882014467E+02 -0.22786455689E+03  0.28980544449E+03  0.17300000000E+03 0.  1.
         -6    1    1    2    0  502 -0.44662703691E+02 -0.11882014467E+02 -0.99589071010E+02  0.20489734609E+03  0.17300000000E+03 0.  1.
<mgrwt>
<rscale>  2 0.17906686E+03</rscale>
<asrwt>0</asrwt>
<pdfrwt beam="1">  1       21 0.12865320E-01 0.17906686E+03</pdfrwt>
<pdfrwt beam="2">  1       21 0.63242803E-01 0.17906686E+03</pdfrwt>
<totfact> 0.12039129E+05</totfact>
</mgrwt>
</event>
<event>
 4    1  0.4349106E+000  0.2539227E+03  0.7546771E-02  0.1110851E+00
         21   -1    0    0  503  502  0.00000000000E+00  0.00000000000E+00  0.18206458323E+04  0.18206458323E+04  0.00000000000E+00 0. -1.
         21   -1    0    0  501  503 -0.00000000000E+00 -0.00000000000E+00 -0.57589607442E+02  0.57589607442E+02  0.00000000000E+00 0. -1.
          6    1    1    2  501    0 -0.97378342316E+02 -0.15831986690E+03  0.29877614699E+03  0.39210190999E+03  0.17300000000E+03 0. -1.
         -6    1    1    2    0  502  0.97378342316E+02  0.15831986690E+03  0.14642800779E+04  0.14861335298E+04  0.17300000000E+03 0. -1.
<mgrwt>
<rscale>  2 0.25392267E+03</rscale>
<asrwt>0</asrwt>
<pdfrwt beam="1">  1       21 0.28009931E+00 0.25392267E+03</pdfrwt>
<pdfrwt beam="2">  1       21 0.88599410E-02 0.25392267E+03</pdfrwt>
<totfact> 0.41995053E+03</totfact>
</mgrwt>
</event>
<event>
 4    1  0.4349106E+000  0.3385500E+03  0.7546771E-02  0.1067415E+00
         21   -1    0    0  503  502  0.00000000000E+00  0.00000000000E+00  0.67750121688E+02  0.67750121688E+02  0.00000000000E+00 0. -1.
         21   -1    0    0  501  503 -0.00000000000E+00 -0.00000000000E+00 -0.27004854234E+04  0.27004854234E+04  0.00000000000E+00 0. -1.
          6    1    1    2  501    0 -0.17620918812E+03 -0.23159756876E+03 -0.21623109601E+04  0.21886536501E+04  0.17300000000E+03 0. -1.
         -6    1    1    2    0  502  0.17620918812E+03  0.23159756876E+03 -0.47042434159E+03  0.57958189499E+03  0.17300000000E+03 0. -1.
<mgrwt>
<rscale>  2 0.33855001E+03</rscale>
<asrwt>0</asrwt>
<pdfrwt beam="1">  1       21 0.10423097E-01 0.33855001E+03</pdfrwt>
<pdfrwt beam="2">  1       21 0.41545925E+00 0.33855001E+03</pdfrwt>
<totfact> 0.44047644E+02</totfact>
</mgrwt>
</event>
<event>
 4    1  0.4349106E+000  0.2136684E+03  0.7546771E-02  0.1138694E+00
         21   -1    0    0  501  502  0.00000000000E+00  0.00000000000E+00  0.56362013126E+02  0.56362013126E+02  0.00000000000E+00 0. -1.
         21   -1    0    0  502  503 -0.00000000000E+00 -0.00000000000E+00 -0.87678121825E+03  0.87678121825E+03  0.00000000000E+00 0. -1.
          6    1    1    2  501    0  0.12081650198E+03 -0.33594002171E+02 -0.53895889415E+03  0.57976794816E+03  0.17300000000E+03 0. -1.
         -6    1    1    2    0  503 -0.12081650198E+03  0.33594002171E+02 -0.28146031098E+03  0.35337528322E+03  0.17300000000E+03 0. -1.
<mgrwt>
<rscale>  2 0.21366840E+03</rscale>
<asrwt>0</asrwt>
<pdfrwt beam="1">  1       21 0.86710795E-02 0.21366840E+03</pdfrwt>
<pdfrwt beam="2">  1       21 0.13488941E+00 0.21366840E+03</pdfrwt>
<totfact> 0.40562748E+04</totfact>
</mgrwt>
</event>
<event>
 4    1  0.4349106E+000  0.1992583E+03  0.7546771E-02  0.1150366E+00
         21   -1    0    0  503  502  0.00000000000E+00  0.00000000000E+00  0.17330679140E+03  0.17330679140E+03  0.00000000000E+00 0. -1.
         21   -1    0    0  501  503 -0.00000000000E+00 -0.00000000000E+00 -0.27235948582E+03  0.27235948582E+03  0.00000000000E+00 0. -1.
          6    1    1    2  501    0 -0.36949742918E+01 -0.98798936588E+02 -0.13833792133E+03  0.24257218139E+03  0.17300000000E+03 0. -1.
         -6    1    1    2    0  502  0.36949742918E+01  0.98798936588E+02  0.39285226908E+02  0.20309409583E+03  0.17300000000E+03 0. -1.
<mgrwt>
<rscale>  2 0.19925833E+03</rscale>
<asrwt>0</asrwt>
<pdfrwt beam="1">  1       21 0.26662583E-01 0.19925833E+03</pdfrwt>
<pdfrwt beam="2">  1       21 0.41901459E-01 0.19925833E+03</pdfrwt>
<totfact> 0.73191425E+04</totfact>
</mgrwt>
</event>
<event>
 4    1  0.4349106E+000  0.1799504E+03  0.7546771E-02  0.1167851E+00
         21   -1    0    0  501  502  0.00000000000E+00  0.00000000000E+00  0.21011599491E+04  0.21011599491E+04  0.00000000000E+00 0.  1.
         21   -1    0    0  502  503 -0.00000000000E+00 -0.00000000000E+00 -0.36452829647E+02  0.36452829647E+02  0.00000000000E+00 0.  1.
          6    1    1    2  501    0 -0.49444821977E+02  0.28905957032E+01  0.18443786007E+04  0.18531364139E+04  0.17300000000E+03 0.  1.
         -6    1    1    2    0  503  0.49444821977E+02 -0.28905957032E+01  0.22032851882E+03  0.28447636487E+03  0.17300000000E+03 0.  1.
<mgrwt>
<rscale>  2 0.17995040E+03</rscale>
<asrwt>0</asrwt>
<pdfrwt beam="1">  1       21 0.32325528E+00 0.17995040E+03</pdfrwt>
<pdfrwt beam="2">  1       21 0.56081293E-02 0.17995040E+03</pdfrwt>
<totfact> 0.56342179E+03</totfact>
</mgrwt>
</event>
<event>
 4    1  0.4349106E+000  0.3669806E+03  0.7546771E-02  0.1055854E+00
         21   -1    0    0  503  502  0.00000000000E+00  0.00000000000E+00  0.87748043522E+03  0.87748043522E+03  0.00000000000E+00 0. -1.
         21   -1    0    0  501  503 -0.00000000000E+00 -0.00000000000E+00 -0.15355902025E+03  0.15355902025E+03  0.00000000000E+00 0. -1.
          6    1    1    2  501    0 -0.79122411716E+01  0.32354773710E+03  0.35018604162E+03  0.50725240806E+03  0.17300000000E+03 0. -1.
         -6    1    1    2    0  502  0.79122411716E+01 -0.32354773710E+03  0.37373537335E+03  0.52378704741E+03  0.17300000000E+03 0. -1.
<mgrwt>
<rscale>  2 0.36698057E+03</rscale>
<asrwt>0</asrwt>
<pdfrwt beam="1">  1       21 0.13499699E+00 0.36698057E+03</pdfrwt>
<pdfrwt beam="2">  1       21 0.23624465E-01 0.36698057E+03</pdfrwt>
<totfact> 0.59921346E+03</totfact>
</mgrwt>
</event>
<event>
 4    1  0.4349106E+000  0.1807800E+03  0.7546771E-02  0.1167050E+00
         21   -1    0    0  503  502  0.00000000000E+00  0.00000000000E+00  0.76929141184E+02  0.76929141184E+02  0.00000000000E+00 0.  1.
         21   -1    0    0  501  503 -0.00000000000E+00 -0.00000000000E+00 -0.77316223120E+03  0.77316223120E+03  0.00000000000E+00 0.  1.
          6    1    1    2  501    0 -0.30648296995E+02  0.42580243728E+02 -0.63341568675E+03  0.65870845408E+03  0.17300000000E+03 0.  1.
         -6    1    1    2    0  502  0.30648296995E+02 -0.42580243728E+02 -0.62817403274E+02  0.19138291830E+03  0.17300000000E+03 0.  1.
<mgrwt>
<rscale>  2 0.18077996E+03</rscale>
<asrwt>0</asrwt>
<pdfrwt beam="1">  1       21 0.11835252E-01 0.18077996E+03</pdfrwt>
<pdfrwt beam="2">  1       21 0.11894804E+00 0.18077996E+03</pdfrwt>
<totfact> 0.32687562E+04</totfact>
</mgrwt>
</event>
<event>
 4    1  0.4349106E+000  0.1790364E+03  0.7546771E-02  0.1168739E+00
         21   -1    0    0  501  502  0.00000000000E+00  0.00000000000E+00  0.41738171564E+02  0.41738171564E+02  0.00000000000E+00 0.  1.
         21   -1    0    0  502  503 -0.00000000000E+00 -0.00000000000E+00 -0.77796253269E+03  0.77796253269E+03  0.00000000000E+00 0.  1.
          6    1    1    2  501    0  0.21611837988E+02  0.40718112551E+02 -0.32168314397E+03  0.36814953666E+03  0.17300000000E+03 0.  1.
         -6    1    1    2    0  503 -0.21611837988E+02 -0.40718112551E+02 -0.41454121716E+03  0.45155116759E+03  0.17300000000E+03 0.  1.
<mgrwt>
<rscale>  2 0.17903641E+03</rscale>
<asrwt>0</asrwt>
<pdfrwt beam="1">  1       21 0.64212571E-02 0.17903641E+03</pdfrwt>
<pdfrwt beam="2">  1       21 0.11968654E+00 0.17903641E+03</pdfrwt>
<totfact> 0.93854508E+04</totfact>
</mgrwt>
</event>
<event>
 4    1  0.4349106E+000  0.1757046E+03  0.7546771E-02  0.1172026E+00
         21   -1    0    0  501  502  0.00000000000E+00  0.00000000000E+00  0.34916331375E+03  0.34916331375E+03  0.00000000000E+00 0. -1.
         21   -1    0    0  502  503 -0.00000000000E+00 -0.00000000000E+00 -0.90268937317E+02  0.90268937317E+02  0.00000000000E+00 0. -1.
          6    1    1    2  501    0  0.21920455358E+02  0.21508201972E+02  0.16091453293E+03  0.23825531688E+03  0.17300000000E+03 0. -1.
         -6    1    1    2    0  503 -0.21920455358E+02 -0.21508201972E+02  0.97979843508E+02  0.20117693419E+03  0.17300000000E+03 0. -1.
<mgrwt>
<rscale>  2 0.17570461E+03</rscale>
<asrwt>0</asrwt>
<pdfrwt beam="1">  1       21 0.53717432E-01 0.17570461E+03</pdfrwt>
<pdfrwt beam="2">  1       21 0.13887529E-01 0.17570461E+03</pdfrwt>
<totfact> 0.14875336E+05</totfact>
</mgrwt>
</event>
<event>
 4    1  0.4349106E+000  0.1914866E+03  0.7546771E-02  0.1157127E+00
         21   -1    0    0  501  502  0.00000000000E+00  0.00000000000E+00  0.14796050317E+03  0.14796050317E+03  0.00000000000E+00 0. -1.
         21   -1    0    0  502  503 -0.00000000000E+00 -0.00000000000E+00 -0.52795534570E+03  0.52795534570E+03  0.00000000000E+00 0. -1.
          6    1    1    2  501    0  0.81559942056E+02  0.92785728482E+01  0.56181225976E+02  0.19955812741E+03  0.17300000000E+03 0. -1.
         -6    1    1    2    0  503 -0.81559942056E+02 -0.92785728482E+01 -0.43617606851E+03  0.47635772147E+03  0.17300000000E+03 0. -1.
<mgrwt>
<rscale>  2 0.19148659E+03</rscale>
<asrwt>0</asrwt>
<pdfrwt beam="1">  1       21 0.22763154E-01 0.19148659E+03</pdfrwt>
<pdfrwt beam="2">  1       21 0.81223901E-01 0.19148659E+03</pdfrwt>
<totfact> 0.24069476E+04</totfact>
</mgrwt>
</event>
<event>
 4    1  0.4349106E+000  0.3707762E+03  0.7546771E-02  0.1054397E+00
         21   -1    0    0  503  502  0.00000000000E+00  0.00000000000E+00  0.72096976902E+03  0.72096976902E+03  0.00000000000E+00 0. -1.
         21   -1    0    0  501  503 -0.00000000000E+00 -0.00000000000E+00 -0.25616579320E+03  0.25616579320E+03  0.00000000000E+00 0. -1.
          6    1    1    2  501    0 -0.84802510218E+02 -0.31678787048E+03 -0.14619924029E+02  0.37106436477E+03  0.17300000000E+03 0. -1.
         -6    1    1    2    0  502  0.84802510218E+02  0.31678787048E+03  0.47942389986E+03  0.60607119745E+03  0.17300000000E+03 0. -1.
<mgrwt>
<rscale>  2 0.37077624E+03</rscale>
<asrwt>0</asrwt>
<pdfrwt beam="1">  1       21 0.11091842E+00 0.37077624E+03</pdfrwt>
<pdfrwt beam="2">  1       21 0.39410122E-01 0.37077624E+03</pdfrwt>
<totfact> 0.35689095E+03</totfact>
</mgrwt>
</event>
<event>
 4    1  0.4349106E+000  0.7879738E+03  0.7546771E-02  0.9577590E-01
         21   -1    0    0  503  502  0.00000000000E+00  0.00000000000E+00  0.84531438921E+03  0.84531438921E+03  0.00000000000E+00 0.  1.
         21   -1    0    0  501  503 -0.00000000000E+00 -0.00000000000E+00 -0.93753857586E+03  0.93753857586E+03  0.00000000000E+00 0. -1.
          6    1    1    2  501    0 -0.29904377643E+02 -0.76816629695E+03  0.36870419618E+03  0.86996868671E+03  0.17300000000E+03 0. -1.
         -6    1    1    2    0  502  0.29904377643E+02  0.76816629695E+03 -0.46092838283E+03  0.91288427836E+03  0.17300000000E+03 0.  1.
<mgrwt>
<rscale>  2 0.78797381E+03</rscale>
<asrwt>0</asrwt>
<pdfrwt beam="1">  1       21 0.13004837E+00 0.78797381E+03</pdfrwt>
<pdfrwt beam="2">  1       21 0.14423670E+00 0.78797381E+03</pdfrwt>
<totfact> 0.10063612E+02</totfact>
</mgrwt>
</event>
<event>
 4    1  0.4349106E+000  0.1937795E+03  0.7546771E-02  0.1155096E+00
         21   -1    0    0  503  502  0.00000000000E+00  0.00000000000E+00  0.43643119499E+03  0.43643119499E+03  0.00000000000E+00 0.  1.
         21   -1    0    0  501  503 -0.00000000000E+00 -0.00000000000E+00 -0.10774238226E+03  0.10774238226E+03  0.00000000000E+00 0.  1.
          6    1    1    2  501    0  0.98504814156E+01 -0.86743575783E+02  0.42229339972E+02  0.19832749955E+03  0.17300000000E+03 0.  1.
         -6    1    1    2    0  502 -0.98504814156E+01  0.86743575783E+02  0.28645947276E+03  0.34584607770E+03  0.17300000000E+03 0.  1.
<mgrwt>
<rscale>  2 0.19377946E+03</rscale>
<asrwt>0</asrwt>
<pdfrwt beam="1">  1       21 0.67143260E-01 0.19377946E+03</pdfrwt>
<pdfrwt beam="2">  1       21 0.16575751E-01 0.19377946E+03</pdfrwt>
<totfact> 0.66327385E+04</totfact>
</mgrwt>
</event>
<event>
 4    1  0.4349106E+000  0.1967565E+03  0.7546771E-02  0.1152505E+00
         21   -1    0    0  501  502  0.00000000000E+00  0.00000000000E+00  0.17234930970E+03  0.17234930970E+03  0.00000000000E+00 0. -1.
         21   -1    0    0  502  503 -0.00000000000E+00 -0.00000000000E+00 -0.25471034885E+03  0.25471034885E+03  0.00000000000E+00 0.  1.
          6    1    1    2  501    0  0.84070002609E+02 -0.41428885198E+02 -0.11457243159E+03  0.22768390358E+03  0.17300000000E+03 0.  1.
         -6    1    1    2    0  503 -0.84070002609E+02  0.41428885198E+02  0.32211392433E+02  0.19937575497E+03  0.17300000000E+03 0. -1.
<mgrwt>
<rscale>  2 0.19675649E+03</rscale>
<asrwt>0</asrwt>
<pdfrwt beam="1">  1       21 0.26515279E-01 0.19675649E+03</pdfrwt>
<pdfrwt beam="2">  1       21 0.39186207E-01 0.19675649E+03</pdfrwt>
<totfact> 0.84819706E+04</totfact>
</mgrwt>
</event>
<event>
 4    1  0.4349106E+000  0.2153624E+03  0.7546771E-02  0.1137389E+00
         21   -1    0    0  501  502  0.00000000000E+00  0.00000000000E+00  0.51841847072E+03  0.51841847072E+03  0.00000000000E+00 0.  1.
         21   -1    0    0  502  503 -0.00000000000E+00 -0.00000000000E+00 -0.60877905973E+03  0.60877905973E+03  0.00000000000E+00 0.  1.
          6    1    1    2  501    0 -0.96745566429E+02 -0.84215496015E+02  0.47536041485E+03  0.52187017389E+03  0.17300000000E+03 0.  1.
         -6    1    1    2    0  503  0.96745566429E+02  0.84215496015E+02 -0.56572100386E+03  0.60532735656E+03  0.17300000000E+03 0.  1.
<mgrwt>
<rscale>  2 0.21536238E+03</rscale>
<asrwt>0</asrwt>
<pdfrwt beam="1">  1       21 0.79756688E-01 0.21536238E+03</pdfrwt>
<pdfrwt beam="2">  1       21 0.93658316E-01 0.21536238E+03</pdfrwt>
<totfact> 0.12983067E+03</totfact>
</mgrwt>
</event>
<event>
 4    1  0.4349106E+000  0.2461282E+03  0.7546771E-02  0.1115776E+00
         21   -1    0    0  503  502  0.00000000000E+00  0.00000000000E+00  0.22420957041E+03  0.22420957041E+03  0.00000000000E+00 0. -1.
         21   -1    0    0  501  503 -0.00000000000E+00 -0.00000000000E+00 -0.42386652057E+03  0.42386652057E+03  0.00000000000E+00 0.  1.
          6    1    1    2  501    0  0.17285810408E+03 -0.27752033283E+02 -0.29494126436E+03  0.38414769154E+03  0.17300000000E+03 0.  1.
         -6    1    1    2    0  502 -0.17285810408E+03  0.27752033283E+02  0.95284314188E+02  0.26392839944E+03  0.17300000000E+03 0. -1.
<mgrwt>
<rscale>  2 0.24612822E+03</rscale>
<asrwt>0</asrwt>
<pdfrwt beam="1">  1       21 0.34493780E-01 0.24612822E+03</pdfrwt>
<pdfrwt beam="2">  1       21 0.65210234E-01 0.24612822E+03</pdfrwt>
<totfact> 0.17004054E+04</totfact>
</mgrwt>
</event>
<event>
 4    1  0.4349106E+000  0.1767189E+03  0.7546771E-02  0.1171017E+00
         21   -1    0    0  501  502  0.00000000000E+00  0.00000000000E+00  0.63911953132E+03  0.63911953132E+03  0.00000000000E+00 0.  1.
         21   -1    0    0  502  503 -0.00000000000E+00 -0.00000000000E+00 -0.99150045254E+02  0.99150045254E+02  0.00000000000E+00 0. -1.
          6    1    1    2  501    0  0.23911214136E+01 -0.35984078362E+02  0.53286909017E+03  0.56140808563E+03  0.17300000000E+03 0.  1.
         -6    1    1    2    0  503 -0.23911214136E+01  0.35984078362E+02  0.71003959008E+01  0.17686149094E+03  0.17300000000E+03 0. -1.
<mgrwt>
<rscale>  2 0.17671890E+03</rscale>
<asrwt>0</asrwt>
<pdfrwt beam="1">  1       21 0.98326079E-01 0.17671890E+03</pdfrwt>
<pdfrwt beam="2">  1       21 0.15253854E-01 0.17671890E+03</pdfrwt>
<totfact> 0.32796330E+04</totfact>
</mgrwt>
</event>
<event>
 4    1  0.4349106E+000  0.2078382E+03  0.7546771E-02  0.1143289E+00
         21   -1    0    0  503  502  0.00000000000E+00  0.00000000000E+00  0.39030232453E+03  0.39030232453E+03  0.00000000000E+00 0.  1.
         21   -1    0    0  501  503 -0.00000000000E+00 -0.00000000000E+00 -0.16549587307E+03  0.16549587307E+03  0.00000000000E+00 0. -1.
          6    1    1    2  501    0  0.99075538915E+02 -0.58751676246E+02 -0.47540204266E+02  0.21320598700E+03  0.17300000000E+03 0. -1.
         -6    1    1    2    0  502 -0.99075538915E+02  0.58751676246E+02  0.27234665573E+03  0.34259221059E+03  0.17300000000E+03 0.  1.
<mgrwt>
<rscale>  2 0.20783821E+03</rscale>
<asrwt>0</asrwt>
<pdfrwt beam="1">  1       21 0.60046511E-01 0.20783821E+03</pdfrwt>
<pdfrwt beam="2">  1       21 0.25460904E-01 0.20783821E+03</pdfrwt>
<totfact> 0.37539802E+04</totfact>
</mgrwt>
</event>
<event>
 4    1  0.4349106E+000  0.1808098E+03  0.7546771E-02  0.1167022E+00
         21   -1    0    0  503  502  0.00000000000E+00  0.00000000000E+00  0.54091232046E+03  0.54091232046E+03  0.00000000000E+00 0.  1.
         21   -1    0    0  501  503 -0.00000000000E+00 -0.00000000000E+00 -0.99825028259E+02  0.99825028259E+02  0.00000000000E+00 0. -1.
          6    1    1    2  501    0  0.10092259541E+02  0.51587918005E+02  0.19309464807E+02  0.18183790149E+03  0.17300000000E+03 0. -1.
         -6    1    1    2    0  502 -0.10092259541E+02 -0.51587918005E+02  0.42177782740E+03  0.45889944723E+03  0.17300000000E+03 0.  1.
<mgrwt>
<rscale>  2 0.18080975E+03</rscale>
<asrwt>0</asrwt>
<pdfrwt beam="1">  1       21 0.83217278E-01 0.18080975E+03</pdfrwt>
<pdfrwt beam="2">  1       21 0.15357697E-01 0.18080975E+03</pdfrwt>
<totfact> 0.47537831E+04</totfact>
</mgrwt>
</event>
<event>
 4    1  0.4349106E+000  0.2234825E+03  0.7546771E-02  0.1131313E+00
         21   -1    0    0  501  502  0.00000000000E+00  0.00000000000E+00  0.71612765880E+02  0.71612765880E+02  0.00000000000E+00 0. -1.
         21   -1    0    0  502  503 -0.00000000000E+00 -0.00000000000E+00 -0.14377373384E+04  0.14377373384E+04  0.00000000000E+00 0.  1.
          6    1    1    2  501    0 -0.39987833879E+02 -0.13570697072E+03 -0.14152517833E+03  0.26452558451E+03  0.17300000000E+03 0. -1.
         -6    1    1    2    0  503  0.39987833879E+02  0.13570697072E+03 -0.12245993942E+04  0.12448245198E+04  0.17300000000E+03 0.  1.
<mgrwt>
<rscale>  2 0.22348246E+03</rscale>
<asrwt>0</asrwt>
<pdfrwt beam="1">  1       21 0.11017347E-01 0.22348246E+03</pdfrwt>
<pdfrwt beam="2">  1       21 0.22119039E+00 0.22348246E+03</pdfrwt>
<totfact> 0.65773154E+03</totfact>
</mgrwt>
</event>
<event>
 4    1  0.4349106E+000  0.1768117E+03  0.7546771E-02  0.1170925E+00
         21   -1    0    0  503  502  0.00000000000E+00  0.00000000000E+00  0.60269953698E+03  0.60269953698E+03  0.00000000000E+00 0.  1.
         21   -1    0    0  501  503 -0.00000000000E+00 -0.00000000000E+00 -0.52029595766E+02  0.52029595766E+02  0.00000000000E+00 0.  1.
          6    1    1    2  501    0 -0.24609811381E+02 -0.26976252330E+02  0.29343408063E+03  0.34258709941E+03  0.17300000000E+03 0.  1.
         -6    1    1    2    0  502  0.24609811381E+02  0.26976252330E+02  0.25723586059E+03  0.31214203334E+03  0.17300000000E+03 0.  1.
<mgrwt>
<rscale>  2 0.17681165E+03</rscale>
<asrwt>0</asrwt>
<pdfrwt beam="1">  1       21 0.92723001E-01 0.17681165E+03</pdfrwt>
<pdfrwt beam="2">  1       21 0.80045536E-02 0.17681165E+03</pdfrwt>
<totfact> 0.11824617E+05</totfact>
</mgrwt>
</event>
<event>
 4    1  0.4349106E+000  0.2294501E+03  0.7546771E-02  0.1127027E+00
         21   -1    0    0  501  502  0.00000000000E+00  0.00000000000E+00  0.14454652246E+03  0.14454652246E+03  0.00000000000E+00 0.  1.
         21   -1    0    0  502  503 -0.00000000000E+00 -0.00000000000E+00 -0.39761818455E+03  0.39761818455E+03  0.00000000000E+00 0. -1.
          6    1    1    2  501    0 -0.11500435466E+03  0.97428658904E+02 -0.47975720728E+02  0.23441206229E+03  0.17300000000E+03 0. -1.
         -6    1    1    2    0  503  0.11500435466E+03 -0.97428658904E+02 -0.20509594137E+03  0.30775264472E+03  0.17300000000E+03 0.  1.
<mgrwt>
<rscale>  2 0.22945009E+03</rscale>
<asrwt>0</asrwt>
<pdfrwt beam="1">  1       21 0.22237927E-01 0.22945009E+03</pdfrwt>
<pdfrwt beam="2">  1       21 0.61172028E-01 0.22945009E+03</pdfrwt>
<totfact> 0.46198318E+04</totfact>
</mgrwt>
</event>
<event>
 4    1  0.4349106E+000  0.2246416E+03  0.7546771E-02  0.1130469E+00
         21   -1    0    0  503  502  0.00000000000E+00  0.00000000000E+00  0.17602217952E+03  0.17602217952E+03  0.00000000000E+00 0.  1.
         21   -1    0    0  501  503 -0.00000000000E+00 -0.00000000000E+00 -0.39181053239E+03  0.39181053239E+03  0.00000000000E+00 0.  1.
          6    1    1    2  501    0  0.14316018628E+03  0.63252205055E+01 -0.25495451566E+03  0.33980237257E+03  0.17300000000E+03 0.  1.
         -6    1    1    2    0  502 -0.14316018628E+03 -0.63252205055E+01  0.39166162791E+02  0.22803033933E+03  0.17300000000E+03 0.  1.
<mgrwt>
<rscale>  2 0.22464160E+03</rscale>
<asrwt>0</asrwt>
<pdfrwt beam="1">  1       21 0.27080335E-01 0.22464160E+03</pdfrwt>
<pdfrwt beam="2">  1       21 0.60278543E-01 0.22464160E+03</pdfrwt>
<totfact> 0.32787841E+04</totfact>
</mgrwt>
</event>
<event>
 4    1  0.4349106E+000  0.1969404E+03  0.7546771E-02  0.1152346E+00
         21   -1    0    0  501  502  0.00000000000E+00  0.00000000000E+00  0.20233591426E+03  0.20233591426E+03  0.00000000000E+00 0. -1.
         21   -1    0    0  502  503 -0.00000000000E+00 -0.00000000000E+00 -0.24611836621E+03  0.24611836621E+03  0.00000000000E+00 0. -1.
          6    1    1    2  501    0 -0.28054498913E+02  0.89830150184E+02  0.83555707385E+02  0.21393238892E+03  0.17300000000E+03 0. -1.
         -6    1    1    2    0  503  0.28054498913E+02 -0.89830150184E+02 -0.12733815934E+03  0.23452189155E+03  0.17300000000E+03 0. -1.
<mgrwt>
<rscale>  2 0.19694037E+03</rscale>
<asrwt>0</asrwt>
<pdfrwt beam="1">  1       21 0.31128602E-01 0.19694037E+03</pdfrwt>
<pdfrwt beam="2">  1       21 0.37864364E-01 0.19694037E+03</pdfrwt>
<totfact> 0.66564737E+04</totfact>
</mgrwt>
</event>
<event>
 4    1  0.4349106E+000  0.2111208E+03  0.7546771E-02  0.1140682E+00
         21   -1    0    0  503  502  0.00000000000E+00  0.00000000000E+00  0.17930732773E+03  0.17930732773E+03  0.00000000000E+00 0. -1.
         21   -1    0    0  501  503 -0.00000000000E+00 -0.00000000000E+00 -0.26049651607E+03  0.26049651607E+03  0.00000000000E+00 0. -1.
          6    1    1    2  501    0  0.50100468198E+02 -0.11014957420E+03 -0.87630128409E+02  0.22858483111E+03  0.17300000000E+03 0. -1.
         -6    1    1    2    0  502 -0.50100468198E+02  0.11014957420E+03  0.64409400669E+01  0.21121901268E+03  0.17300000000E+03 0. -1.
<mgrwt>
<rscale>  2 0.21112078E+03</rscale>
<asrwt>0</asrwt>
<pdfrwt beam="1">  1       21 0.27585743E-01 0.21112078E+03</pdfrwt>
<pdfrwt beam="2">  1       21 0.40076387E-01 0.21112078E+03</pdfrwt>
<totfact> 0.74641366E+04</totfact>
</mgrwt>
</event>
<event>
 4    1  0.4349106E+000  0.2145091E+03  0.7546771E-02  0.1138044E+00
         21   -1    0    0  503  502  0.00000000000E+00  0.00000000000E+00  0.19979082681E+03  0.19979082681E+03  0.00000000000E+00 0.  1.
         21   -1    0    0  501  503 -0.00000000000E+00 -0.00000000000E+00 -0.23356295999E+03  0.23356295999E+03  0.00000000000E+00 0.  1.
          6    1    1    2  501    0  0.11268347215E+03  0.58203065130E+02  0.86784485928E+01  0.21468459925E+03  0.17300000000E+03 0.  1.
         -6    1    1    2    0  502 -0.11268347215E+03 -0.58203065130E+02 -0.42450581773E+02  0.21866918754E+03  0.17300000000E+03 0.  1.
<mgrwt>
<rscale>  2 0.21450912E+03</rscale>
<asrwt>0</asrwt>
<pdfrwt beam="1">  1       21 0.30737050E-01 0.21450912E+03</pdfrwt>
<pdfrwt beam="2">  1       21 0.35932763E-01 0.21450912E+03</pdfrwt>
<totfact> 0.75193904E+04</totfact>
</mgrwt>
</event>
<event>
 4    1  0.4349106E+000  0.4968648E+03  0.7546771E-02  0.1014600E+00
         21   -1    0    0  503  502  0.00000000000E+00  0.00000000000E+00  0.18024459830E+04  0.18024459830E+04  0.00000000000E+00 0.  1.
         21   -1    0    0  501  503 -0.00000000000E+00 -0.00000000000E+00 -0.14697971694E+03  0.14697971694E+03  0.00000000000E+00 0. -1.
          6    1    1    2  501    0  0.34469891222E+03 -0.31325438606E+03  0.10821439720E+04  0.11907603565E+04  0.17300000000E+03 0.  1.
         -6    1    1    2    0  502 -0.34469891222E+03  0.31325438606E+03  0.57332229405E+03  0.75866534344E+03  0.17300000000E+03 0. -1.
<mgrwt>
<rscale>  2 0.49686482E+03</rscale>
<asrwt>0</asrwt>
<pdfrwt beam="1">  1       21 0.27729937E+00 0.49686482E+03</pdfrwt>
<pdfrwt beam="2">  1       21 0.22612265E-01 0.49686482E+03</pdfrwt>
<totfact> 0.66681289E+02</totfact>
</mgrwt>
</event>
<event>
 4    1  0.4349106E+000  0.5499405E+03  0.7546771E-02  0.1001508E+00
         21   -1    0    0  501  502  0.00000000000E+00  0.00000000000E+00  0.27770705631E+03  0.27770705631E+03  0.00000000000E+00 0.  1.
         21   -1    0    0  502  503 -0.00000000000E+00 -0.00000000000E+00 -0.10954418993E+04  0.10954418993E+04  0.00000000000E+00 0.  1.
          6    1    1    2  501    0  0.33020169279E+02 -0.52097524750E+03 -0.46134729021E+03  0.71782718134E+03  0.17300000000E+03 0.  1.
         -6    1    1    2    0  503 -0.33020169279E+02  0.52097524750E+03 -0.35638755282E+03  0.65532177431E+03  0.17300000000E+03 0.  1.
<mgrwt>
<rscale>  2 0.54994049E+03</rscale>
<asrwt>0</asrwt>
<pdfrwt beam="1">  1       21 0.42724163E-01 0.54994049E+03</pdfrwt>
<pdfrwt beam="2">  1       21 0.16852952E+00 0.54994049E+03</pdfrwt>
<totfact> 0.93070649E+02</totfact>
</mgrwt>
</event>
<event>
 4    1  0.4349106E+000  0.2222956E+03  0.7546771E-02  0.1132183E+00
         21   -1    0    0  501  502  0.00000000000E+00  0.00000000000E+00  0.80229477577E+03  0.80229477577E+03  0.00000000000E+00 0.  1.
         21   -1    0    0  502  503 -0.00000000000E+00 -0.00000000000E+00 -0.20379961412E+03  0.20379961412E+03  0.00000000000E+00 0. -1.
          6    1    1    2  501    0 -0.43474252163E+01 -0.13952581245E+03  0.71945884773E+03  0.75301818439E+03  0.17300000000E+03 0.  1.
         -6    1    1    2    0  503  0.43474252163E+01  0.13952581245E+03 -0.12096368607E+03  0.25307620551E+03  0.17300000000E+03 0. -1.
<mgrwt>
<rscale>  2 0.22229564E+03</rscale>
<asrwt>0</asrwt>
<pdfrwt beam="1">  1       21 0.12342996E+00 0.22229564E+03</pdfrwt>
<pdfrwt beam="2">  1       21 0.31353787E-01 0.22229564E+03</pdfrwt>
<totfact> 0.47022183E+03</totfact>
</mgrwt>
</event>
<event>
 4    1  0.4349106E+000  0.1819730E+03  0.7546771E-02  0.1165907E+00
         21   -1    0    0  503  502  0.00000000000E+00  0.00000000000E+00  0.44762270632E+02  0.44762270632E+02  0.00000000000E+00 0. -1.
         21   -1    0    0  501  503 -0.00000000000E+00 -0.00000000000E+00 -0.10543588039E+04  0.10543588039E+04  0.00000000000E+00 0. -1.
          6    1    1    2  501    0 -0.43940819311E+02 -0.35417042434E+02 -0.80498198581E+03  0.82529398397E+03  0.17300000000E+03 0. -1.
         -6    1    1    2    0  502  0.43940819311E+02  0.35417042434E+02 -0.20461454747E+03  0.27382709058E+03  0.17300000000E+03 0. -1.
<mgrwt>
<rscale>  2 0.18197297E+03</rscale>
<asrwt>0</asrwt>
<pdfrwt beam="1">  1       21 0.68865036E-02 0.18197297E+03</pdfrwt>
<pdfrwt beam="2">  1       21 0.16220904E+00 0.18197297E+03</pdfrwt>
<totfact> 0.37986256E+04</totfact>
</mgrwt>
</event>
<event>
 4    1  0.4349106E+000  0.1895024E+03  0.7546771E-02  0.1158911E+00
         21   -1    0    0  501  502  0.00000000000E+00  0.00000000000E+00  0.23862686454E+03  0.23862686454E+03  0.00000000000E+00 0.  1.
         21   -1    0    0  502  503 -0.00000000000E+00 -0.00000000000E+00 -0.24597970187E+03  0.24597970187E+03  0.00000000000E+00 0.  1.
          6    1    1    2  501    0 -0.42611866724E+02 -0.64547611638E+02  0.14729194407E+03  0.24001267080E+03  0.17300000000E+03 0.  1.
         -6    1    1    2    0  503  0.42611866724E+02  0.64547611638E+02 -0.15464478141E+03  0.24459389561E+03  0.17300000000E+03 0.  1.
<mgrwt>
<rscale>  2 0.18950242E+03</rscale>
<asrwt>0</asrwt>
<pdfrwt beam="1">  1       21 0.36711825E-01 0.18950242E+03</pdfrwt>
<pdfrwt beam="2">  1       21 0.37843031E-01 0.18950242E+03</pdfrwt>
<totfact> 0.48261483E+04</totfact>
</mgrwt>
</event>
<event>
 4    1  0.4349106E+000  0.1970452E+03  0.7546771E-02  0.1152256E+00
         21   -1    0    0  503  502  0.00000000000E+00  0.00000000000E+00  0.50417422403E+03  0.50417422403E+03  0.00000000000E+00 0.  1.
         21   -1    0    0  501  503 -0.00000000000E+00 -0.00000000000E+00 -0.91007054704E+02  0.91007054704E+02  0.00000000000E+00 0. -1.
          6    1    1    2  501    0 -0.56102029666E+02  0.75831210863E+02  0.89878656450E+02  0.21657558302E+03  0.17300000000E+03 0. -1.
         -6    1    1    2    0  502  0.56102029666E+02 -0.75831210863E+02  0.32328851288E+03  0.37860569572E+03  0.17300000000E+03 0.  1.
<mgrwt>
<rscale>  2 0.19704520E+03</rscale>
<asrwt>0</asrwt>
<pdfrwt beam="1">  1       21 0.77565264E-01 0.19704520E+03</pdfrwt>
<pdfrwt beam="2">  1       21 0.14001086E-01 0.19704520E+03</pdfrwt>
<totfact> 0.65422711E+04</totfact>
</mgrwt>
</event>
<event>
 4    1  0.4349106E+000  0.2147051E+03  0.7546771E-02  0.1137893E+00
         21   -1    0    0  503  502  0.00000000000E+00  0.00000000000E+00  0.21479789885E+03  0.21479789885E+03  0.00000000000E+00 0. -1.
         21   -1    0    0  501  503 -0.00000000000E+00 -0.00000000000E+00 -0.23004540679E+03  0.23004540679E+03  0.00000000000E+00 0. -1.
          6    1    1    2  501    0  0.12045161460E+03  0.40751627065E+02 -0.65233498363E+02  0.22439629203E+03  0.17300000000E+03 0. -1.
         -6    1    1    2    0  502 -0.12045161460E+03 -0.40751627065E+02  0.49985990421E+02  0.22044701360E+03  0.17300000000E+03 0. -1.
<mgrwt>
<rscale>  2 0.21470512E+03</rscale>
<asrwt>0</asrwt>
<pdfrwt beam="1">  1       21 0.33045830E-01 0.21470512E+03</pdfrwt>
<pdfrwt beam="2">  1       21 0.35391601E-01 0.21470512E+03</pdfrwt>
<totfact> 0.67204017E+04</totfact>
</mgrwt>
</event>
<event>
 4    1  0.4349106E+000  0.1908604E+03  0.7546771E-02  0.1157688E+00
         21   -1    0    0  503  502  0.00000000000E+00  0.00000000000E+00  0.76276386621E+03  0.76276386621E+03  0.00000000000E+00 0.  1.
         21   -1    0    0  501  503 -0.00000000000E+00 -0.00000000000E+00 -0.11570538969E+03  0.11570538969E+03  0.00000000000E+00 0.  1.
          6    1    1    2  501    0 -0.79538289656E+02 -0.13128537623E+02 -0.13065832652E+02  0.19130711959E+03  0.17300000000E+03 0.  1.
         -6    1    1    2    0  502  0.79538289656E+02  0.13128537623E+02  0.66012430917E+03  0.68716213631E+03  0.17300000000E+03 0.  1.
<mgrwt>
<rscale>  2 0.19086042E+03</rscale>
<asrwt>0</asrwt>
<pdfrwt beam="1">  1       21 0.11734828E+00 0.19086042E+03</pdfrwt>
<pdfrwt beam="2">  1       21 0.17800830E-01 0.19086042E+03</pdfrwt>
<totfact> 0.16011501E+04</totfact>
</mgrwt>
</event>
<event>
 4    1  0.4349106E+000  0.2410994E+03  0.7546771E-02  0.1119063E+00
         21   -1    0    0  503  502  0.00000000000E+00  0.00000000000E+00  0.40550691555E+03  0.40550691555E+03  0.00000000000E+00 0. -1.
         21   -1    0    0  501  503 -0.00000000000E+00 -0.00000000000E+00 -0.14334883674E+03  0.14334883674E+03  0.00000000000E+00 0.  1.
          6    1    1    2  501    0 -0.16017984118E+03  0.50421843389E+02  0.13111168349E+03  0.27444346842E+03  0.17300000000E+03 0. -1.
         -6    1    1    2    0  502  0.16017984118E+03 -0.50421843389E+02  0.13104639533E+03  0.27441228387E+03  0.17300000000E+03 0.  1.
<mgrwt>
<rscale>  2 0.24109945E+03</rscale>
<asrwt>0</asrwt>
<pdfrwt beam="1">  1       21 0.62385679E-01 0.24109945E+03</pdfrwt>
<pdfrwt beam="2">  1       21 0.22053667E-01 0.24109945E+03</pdfrwt>
<totfact> 0.44749680E+04</totfact>
</mgrwt>
</event>
<event>
 4    1  0.4349106E+000  0.1782129E+03  0.7546771E-02  0.1169544E+00
         21   -1    0    0  503  502  0.00000000000E+00  0.00000000000E+00  0.11320155227E+03  0.11320155227E+03  0.00000000000E+00 0. -1.
         21   -1    0    0  501  503 -0.00000000000E+00 -0.00000000000E+00 -0.35933288893E+03  0.35933288893E+03  0.00000000000E+00 0. -1.
          6    1    1    2  501    0 -0.24884107730E+02 -0.34808524431E+02 -0.23368799112E+03  0.29388761353E+03  0.17300000000E+03 0. -1.
         -6    1    1    2    0  502  0.24884107730E+02  0.34808524431E+02 -0.12443345533E+02  0.17864682768E+03  0.17300000000E+03 0. -1.
<mgrwt>
<rscale>  2 0.17821294E+03</rscale>
<asrwt>0</asrwt>
<pdfrwt beam="1">  1       21 0.17415623E-01 0.17821294E+03</pdfrwt>
<pdfrwt beam="2">  1       21 0.55281983E-01 0.17821294E+03</pdfrwt>
<totfact> 0.92596103E+04</totfact>
</mgrwt>
</event>
<event>
 4    1  0.4349106E+000  0.2222411E+03  0.7546771E-02  0.1132223E+00
         21   -1    0    0  503  502  0.00000000000E+00  0.00000000000E+00  0.64712296283E+03  0.64712296283E+03  0.00000000000E+00 0. -1.
         21   -1    0    0  501  503 -0.00000000000E+00 -0.00000000000E+00 -0.77944084675E+02  0.77944084675E+02  0.00000000000E+00 0. -1.
          6    1    1    2  501    0 -0.13509959102E+03  0.34787788660E+02  0.23232460720E+03  0.32150554092E+03  0.17300000000E+03 0. -1.
         -6    1    1    2    0  502  0.13509959102E+03 -0.34787788660E+02  0.33685427096E+03  0.40356150658E+03  0.17300000000E+03 0. -1.
<mgrwt>
<rscale>  2 0.22224106E+03</rscale>
<asrwt>0</asrwt>
<pdfrwt beam="1">  1       21 0.99557375E-01 0.22224106E+03</pdfrwt>
<pdfrwt beam="2">  1       21 0.11991398E-01 0.22224106E+03</pdfrwt>
<totfact> 0.48030668E+04</totfact>
</mgrwt>
</event>
<event>
 4    1  0.4349106E+000  0.1994656E+03  0.7546771E-02  0.1150191E+00
         21   -1    0    0  501  502  0.00000000000E+00  0.00000000000E+00  0.24043381669E+03  0.24043381669E+03  0.00000000000E+00 0.  1.
         21   -1    0    0  502  503 -0.00000000000E+00 -0.00000000000E+00 -0.24384171457E+03  0.24384171457E+03  0.00000000000E+00 0.  1.
          6    1    1    2  501    0 -0.92152777698E+02 -0.36951184697E+02  0.13556295420E+03  0.24117180399E+03  0.17300000000E+03 0.  1.
         -6    1    1    2    0  503  0.92152777698E+02  0.36951184697E+02 -0.13897085208E+03  0.24310372728E+03  0.17300000000E+03 0.  1.
<mgrwt>
<rscale>  2 0.19946560E+03</rscale>
<asrwt>0</asrwt>
<pdfrwt beam="1">  1       21 0.36989818E-01 0.19946560E+03</pdfrwt>
<pdfrwt beam="2">  1       21 0.37514110E-01 0.19946560E+03</pdfrwt>
<totfact> 0.48143923E+04</totfact>
</mgrwt>
</event>
<event>
 4    1  0.4349106E+000  0.2534088E+03  0.7546771E-02  0.1111169E+00
         21   -1    0    0  503  502  0.00000000000E+00  0.00000000000E+00  0.67016296186E+03  0.67016296186E+03  0.00000000000E+00 0. -1.
         21   -1    0    0  501  503 -0.00000000000E+00 -0.00000000000E+00 -0.11434374816E+03  0.11434374816E+03  0.00000000000E+00 0.  1.
          6    1    1    2  501    0  0.17253793854E+03 -0.67213691197E+02  0.12003681130E+03  0.28040124212E+03  0.17300000000E+03 0.  1.
         -6    1    1    2    0  502 -0.17253793854E+03  0.67213691197E+02  0.43578240240E+03  0.50410546790E+03  0.17300000000E+03 0. -1.
<mgrwt>
<rscale>  2 0.25340880E+03</rscale>
<asrwt>0</asrwt>
<pdfrwt beam="1">  1       21 0.10310199E+00 0.25340880E+03</pdfrwt>
<pdfrwt beam="2">  1       21 0.17591346E-01 0.25340880E+03</pdfrwt>
<totfact> 0.21618199E+04</totfact>
</mgrwt>
</event>
<event>
 4    1  0.4349106E+000  0.2077505E+03  0.7546771E-02  0.1143360E+00
         21   -1    0    0  501  502  0.00000000000E+00  0.00000000000E+00  0.81312536377E+03  0.81312536377E+03  0.00000000000E+00 0.  1.
         21   -1    0    0  502  503 -0.00000000000E+00 -0.00000000000E+00 -0.54214042336E+02  0.54214042336E+02  0.00000000000E+00 0. -1.
          6    1    1    2  501    0  0.38372700450E+02 -0.10843805127E+03  0.44219161613E+03  0.48856289306E+03  0.17300000000E+03 0.  1.
         -6    1    1    2    0  503 -0.38372700450E+02  0.10843805127E+03  0.31671970530E+03  0.37877651304E+03  0.17300000000E+03 0.  1.
<mgrwt>
<rscale>  2 0.20775051E+03</rscale>
<asrwt>0</asrwt>
<pdfrwt beam="1">  1       21 0.12509620E+00 0.20775051E+03</pdfrwt>
<pdfrwt beam="2">  1       21 0.83406225E-02 0.20775051E+03</pdfrwt>
<totfact> 0.52707579E+04</totfact>
</mgrwt>
</event>
<event>
 4    1  0.4349106E+000  0.1985930E+03  0.7546771E-02  0.1150932E+00
         21   -1    0    0  501  502  0.00000000000E+00  0.00000000000E+00  0.62334490977E+03  0.62334490977E+03  0.00000000000E+00 0. -1.
         21   -1    0    0  502  503 -0.00000000000E+00 -0.00000000000E+00 -0.90186707475E+02  0.90186707475E+02  0.00000000000E+00 0. -1.
          6    1    1    2  501    0  0.97437378601E+02  0.40155805746E+01  0.46148329216E+03  0.50240023545E+03  0.17300000000E+03 0. -1.
         -6    1    1    2    0  503 -0.97437378601E+02 -0.40155805746E+01  0.71674910133E+02  0.21113138179E+03  0.17300000000E+03 0. -1.
<mgrwt>
<rscale>  2 0.19859297E+03</rscale>
<asrwt>0</asrwt>
<pdfrwt beam="1">  1       21 0.95899214E-01 0.19859297E+03</pdfrwt>
<pdfrwt beam="2">  1       21 0.13874878E-01 0.19859297E+03</pdfrwt>
<totfact> 0.40820280E+04</totfact>
</mgrwt>
</event>
<event>
 4    1  0.4349106E+000  0.1757757E+03  0.7546771E-02  0.1171955E+00
         21   -1    0    0  501  502  0.00000000000E+00  0.00000000000E+00  0.56448029584E+03  0.56448029584E+03  0.00000000000E+00 0.  1.
         21   -1    0    0  502  503 -0.00000000000E+00 -0.00000000000E+00 -0.65903309326E+02  0.65903309326E+02  0.00000000000E+00 0.  1.
          6    1    1    2  501    0 -0.29252309299E+02 -0.10601895270E+02  0.37903801356E+03  0.41781205524E+03  0.17300000000E+03 0. -1.
         -6    1    1    2    0  503  0.29252309299E+02  0.10601895270E+02  0.11953897296E+03  0.21257154993E+03  0.17300000000E+03 0. -1.
<mgrwt>
<rscale>  2 0.17577570E+03</rscale>
<asrwt>0</asrwt>
<pdfrwt beam="1">  1       21 0.86843119E-01 0.17577570E+03</pdfrwt>
<pdfrwt beam="2">  1       21 0.10138971E-01 0.17577570E+03</pdfrwt>
<totfact> 0.90970112E+04</totfact>
</mgrwt>
</event>
<event>
 4    1  0.4349106E+000  0.1862161E+03  0.7546771E-02  0.1161919E+00
         21   -1    0    0  501  502  0.00000000000E+00  0.00000000000E+00  0.14164323320E+04  0.14164323320E+04  0.00000000000E+00 0. -1.
         21   -1    0    0  502  503 -0.00000000000E+00 -0.00000000000E+00 -0.83735133081E+02  0.83735133081E+02  0.00000000000E+00 0. -1.
          6    1    1    2  501    0  0.12514854511E+02 -0.67755534727E+02  0.12973252124E+04  0.13106216619E+04  0.17300000000E+03 0. -1.
         -6    1    1    2    0  503 -0.12514854511E+02  0.67755534727E+02  0.35371986582E+02  0.18954580318E+03  0.17300000000E+03 0. -1.
<mgrwt>
<rscale>  2 0.18621610E+03</rscale>
<asrwt>0</asrwt>
<pdfrwt beam="1">  1       21 0.21791265E+00 0.18621610E+03</pdfrwt>
<pdfrwt beam="2">  1       21 0.12882329E-01 0.18621610E+03</pdfrwt>
<totfact> 0.53872254E+03</totfact>
</mgrwt>
</event>
<event>
 4    1  0.4349106E+000  0.2086102E+03  0.7546771E-02  0.1142671E+00
         21   -1    0    0  503  502  0.00000000000E+00  0.00000000000E+00  0.31611911251E+03  0.31611911251E+03  0.00000000000E+00 0.  1.
         21   -1    0    0  501  503 -0.00000000000E+00 -0.00000000000E+00 -0.15766693599E+03  0.15766693599E+03  0.00000000000E+00 0. -1.
          6    1    1    2  501    0 -0.11353256928E+03 -0.26449119221E+02 -0.51519769454E+01  0.20867377186E+03  0.17300000000E+03 0. -1.
         -6    1    1    2    0  502  0.11353256928E+03  0.26449119221E+02  0.16360415346E+03  0.26511227664E+03  0.17300000000E+03 0.  1.
<mgrwt>
<rscale>  2 0.20861016E+03</rscale>
<asrwt>0</asrwt>
<pdfrwt beam="1">  1       21 0.48633709E-01 0.20861016E+03</pdfrwt>
<pdfrwt beam="2">  1       21 0.24256452E-01 0.20861016E+03</pdfrwt>
<totfact> 0.64294456E+04</totfact>
</mgrwt>
</event>
<event>
 4    1  0.4349106E+000  0.2108451E+03  0.7546771E-02  0.1140899E+00
         21   -1    0    0  501  502  0.00000000000E+00  0.00000000000E+00  0.16074473301E+03  0.16074473301E+03  0.00000000000E+00 0.  1.
         21   -1    0    0  502  503 -0.00000000000E+00 -0.00000000000E+00 -0.47325331622E+03  0.47325331622E+03  0.00000000000E+00 0.  1.
          6    1    1    2  501    0  0.13013449678E+02  0.11982193647E+03  0.48110145971E+02  0.21626426537E+03  0.17300000000E+03 0.  1.
         -6    1    1    2    0  503 -0.13013449678E+02 -0.11982193647E+03 -0.36061872918E+03  0.41773378385E+03  0.17300000000E+03 0.  1.
<mgrwt>
<rscale>  2 0.21084508E+03</rscale>
<asrwt>0</asrwt>
<pdfrwt beam="1">  1       21 0.24729959E-01 0.21084508E+03</pdfrwt>
<pdfrwt beam="2">  1       21 0.72808202E-01 0.21084508E+03</pdfrwt>
<totfact> 0.25995183E+04</totfact>
</mgrwt>
</event>
<event>
 4    1  0.4349106E+000  0.2637370E+03  0.7546771E-02  0.1104919E+00
         21   -1    0    0  501  502  0.00000000000E+00  0.00000000000E+00  0.17902263716E+03  0.17902263716E+03  0.00000000000E+00 0. -1.
         21   -1    0    0  502  503 -0.00000000000E+00 -0.00000000000E+00 -0.39297519931E+03  0.39297519931E+03  0.00000000000E+00 0.  1.
          6    1    1    2  501    0  0.94282591106E+02 -0.17532538837E+03 -0.76587829715E+02  0.27463228953E+03  0.17300000000E+03 0.  1.
         -6    1    1    2    0  503 -0.94282591106E+02  0.17532538837E+03 -0.13736473244E+03  0.29736554695E+03  0.17300000000E+03 0. -1.
<mgrwt>
<rscale>  2 0.26373699E+03</rscale>
<asrwt>0</asrwt>
<pdfrwt beam="1">  1       21 0.27541944E-01 0.26373699E+03</pdfrwt>
<pdfrwt beam="2">  1       21 0.60457723E-01 0.26373699E+03</pdfrwt>
<totfact> 0.30978364E+04</totfact>
</mgrwt>
</event>
<event>
 4    1  0.4349106E+000  0.2250797E+03  0.7546771E-02  0.1130152E+00
         21   -1    0    0  501  502  0.00000000000E+00  0.00000000000E+00  0.51604777537E+03  0.51604777537E+03  0.00000000000E+00 0. -1.
         21   -1    0    0  502  503 -0.00000000000E+00 -0.00000000000E+00 -0.10412738700E+03  0.10412738700E+03  0.00000000000E+00 0.  1.
          6    1    1    2  501    0 -0.14347559267E+03 -0.12108647374E+02  0.13179542321E+03  0.26082733486E+03  0.17300000000E+03 0.  1.
         -6    1    1    2    0  503  0.14347559267E+03  0.12108647374E+02  0.28012496516E+03  0.35934782751E+03  0.17300000000E+03 0. -1.
<mgrwt>
<rscale>  2 0.22507969E+03</rscale>
<asrwt>0</asrwt>
<pdfrwt beam="1">  1       21 0.79391964E-01 0.22507969E+03</pdfrwt>
<pdfrwt beam="2">  1       21 0.16019598E-01 0.22507969E+03</pdfrwt>
<totfact> 0.47921116E+04</totfact>
</mgrwt>
</event>
<event>
 4    1  0.4349106E+000  0.1880507E+03  0.7546771E-02  0.1160231E+00
         21   -1    0    0  503  502  0.00000000000E+00  0.00000000000E+00  0.56724234745E+03  0.56724234745E+03  0.00000000000E+00 0. -1.
         21   -1    0    0  501  503 -0.00000000000E+00 -0.00000000000E+00 -0.78122820615E+02  0.78122820615E+02  0.00000000000E+00 0. -1.
          6    1    1    2  501    0 -0.70549387427E+02 -0.21373971724E+02  0.99532256170E+02  0.21276685069E+03  0.17300000000E+03 0. -1.
         -6    1    1    2    0  502  0.70549387427E+02  0.21373971724E+02  0.38958727067E+03  0.43259831738E+03  0.17300000000E+03 0. -1.
<mgrwt>
<rscale>  2 0.18805069E+03</rscale>
<asrwt>0</asrwt>
<pdfrwt beam="1">  1       21 0.87268051E-01 0.18805069E+03</pdfrwt>
<pdfrwt beam="2">  1       21 0.12018896E-01 0.18805069E+03</pdfrwt>
<totfact> 0.66145760E+04</totfact>
</mgrwt>
</event>
<event>
 4    1  0.4349106E+000  0.2078377E+03  0.7546771E-02  0.1143290E+00
         21   -1    0    0  503  502  0.00000000000E+00  0.00000000000E+00  0.72794989733E+03  0.72794989733E+03  0.00000000000E+00 0.  1.
         21   -1    0    0  501  503 -0.00000000000E+00 -0.00000000000E+00 -0.99671584724E+02  0.99671584724E+02  0.00000000000E+00 0. -1.
          6    1    1    2  501    0 -0.87562106148E+02  0.74835776499E+02  0.50906994518E+02  0.21398139631E+03  0.17300000000E+03 0. -1.
         -6    1    1    2    0  502  0.87562106148E+02 -0.74835776499E+02  0.57737131808E+03  0.61364008574E+03  0.17300000000E+03 0.  1.
<mgrwt>
<rscale>  2 0.20783772E+03</rscale>
<asrwt>0</asrwt>
<pdfrwt beam="1">  1       21 0.11199229E+00 0.20783772E+03</pdfrwt>
<pdfrwt beam="2">  1       21 0.15334090E-01 0.20783772E+03</pdfrwt>
<totfact> 0.23347530E+04</totfact>
</mgrwt>
</event>
<event>
 4    1  0.4349106E+000  0.1791804E+03  0.7546771E-02  0.1168599E+00
         21   -1    0    0  503  502  0.00000000000E+00  0.00000000000E+00  0.26199075307E+04  0.26199075307E+04  0.00000000000E+00 0. -1.
         21   -1    0    0  501  503 -0.00000000000E+00 -0.00000000000E+00 -0.55053432002E+02  0.55053432002E+02  0.00000000000E+00 0. -1.
          6    1    1    2  501    0  0.26674049096E+02  0.38276722427E+02  0.10316097181E+03  0.20675540738E+03  0.17300000000E+03 0. -1.
         -6    1    1    2    0  502 -0.26674049096E+02 -0.38276722427E+02  0.24616931269E+04  0.24682055553E+04  0.17300000000E+03 0. -1.
<mgrwt>
<rscale>  2 0.17918039E+03</rscale>
<asrwt>0</asrwt>
<pdfrwt beam="1">  1       21 0.40306260E+00 0.17918039E+03</pdfrwt>
<pdfrwt beam="2">  1       21 0.84697608E-02 0.17918039E+03</pdfrwt>
<totfact> 0.92598311E+02</totfact>
</mgrwt>
</event>
<event>
 4    1  0.4349106E+000  0.1979776E+03  0.7546771E-02  0.1151457E+00
         21   -1    0    0  503  502  0.00000000000E+00  0.00000000000E+00  0.37423369043E+02  0.37423369043E+02  0.00000000000E+00 0.  1.
         21   -1    0    0  501  503 -0.00000000000E+00 -0.00000000000E+00 -0.13911147551E+04  0.13911147551E+04  0.00000000000E+00 0. -1.
          6    1    1    2  501    0 -0.15261754565E+02  0.95043186934E+02 -0.10319165561E+04  0.10507363644E+04  0.17300000000E+03 0. -1.
         -6    1    1    2    0  502  0.15261754565E+02 -0.95043186934E+02 -0.32177482993E+03  0.37780175980E+03  0.17300000000E+03 0.  1.
<mgrwt>
<rscale>  2 0.19797760E+03</rscale>
<asrwt>0</asrwt>
<pdfrwt beam="1">  1       21 0.57574430E-02 0.19797760E+03</pdfrwt>
<pdfrwt beam="2">  1       21 0.21401759E+00 0.19797760E+03</pdfrwt>
<totfact> 0.23080416E+04</totfact>
</mgrwt>
</event>
<event>
 4    1  0.4349106E+000  0.1864479E+03  0.7546771E-02  0.1161705E+00
         21   -1    0    0  503  502  0.00000000000E+00  0.00000000000E+00  0.59555222543E+02  0.59555222543E+02  0.00000000000E+00 0.  1.
         21   -1    0    0  501  503 -0.00000000000E+00 -0.00000000000E+00 -0.15681387989E+04  0.15681387989E+04  0.00000000000E+00 0.  1.
          6    1    1    2  501    0 -0.65778592069E+02  0.22516591377E+02 -0.13991188658E+04  0.14114873080E+04  0.17300000000E+03 0.  1.
         -6    1    1    2    0  502  0.65778592069E+02 -0.22516591377E+02 -0.10946471051E+03  0.21620671338E+03  0.17300000000E+03 0.  1.
<mgrwt>
<rscale>  2 0.18644790E+03</rscale>
<asrwt>0</asrwt>
<pdfrwt beam="1">  1       21 0.91623427E-02 0.18644790E+03</pdfrwt>
<pdfrwt beam="2">  1       21 0.24125210E+00 0.18644790E+03</pdfrwt>
<totfact> 0.71333838E+03</totfact>
</mgrwt>
</event>
<event>
 4    1  0.4349106E+000  0.2058662E+03  0.7546771E-02  0.1144882E+00
         21   -1    0    0  501  502  0.00000000000E+00  0.00000000000E+00  0.18188940228E+04  0.18188940228E+04  0.00000000000E+00 0. -1.
         21   -1    0    0  502  503 -0.00000000000E+00 -0.00000000000E+00 -0.23570819503E+02  0.23570819503E+02  0.00000000000E+00 0. -1.
          6    1    1    2  501    0  0.28469940540E+02  0.10789512474E+03  0.79898172113E+03  0.82507738192E+03  0.17300000000E+03 0. -1.
         -6    1    1    2    0  503 -0.28469940540E+02 -0.10789512474E+03  0.99634148220E+03  0.10173874604E+04  0.17300000000E+03 0. -1.
<mgrwt>
<rscale>  2 0.20586621E+03</rscale>
<asrwt>0</asrwt>
<pdfrwt beam="1">  1       21 0.27982974E+00 0.20586621E+03</pdfrwt>
<pdfrwt beam="2">  1       21 0.36262814E-02 0.20586621E+03</pdfrwt>
<totfact> 0.20343357E+04</totfact>
</mgrwt>
</event>
<event>
 4    1  0.4349106E+000  0.1974309E+03  0.7546771E-02  0.1151925E+00
         21   -1    0    0  503  502  0.00000000000E+00  0.00000000000E+00  0.26851958542E+03  0.26851958542E+03  0.00000000000E+00 0.  1.
         21   -1    0    0  501  503 -0.00000000000E+00 -0.00000000000E+00 -0.22441637885E+03  0.22441637885E+03  0.00000000000E+00 0. -1.
          6    1    1    2  501    0  0.88609355096E+02 -0.34617342469E+02 -0.12441663500E+03  0.23336340175E+03  0.17300000000E+03 0. -1.
         -6    1    1    2    0  502 -0.88609355096E+02  0.34617342469E+02  0.16851984157E+03  0.25957256252E+03  0.17300000000E+03 0.  1.
<mgrwt>
<rscale>  2 0.19743095E+03</rscale>
<asrwt>0</asrwt>
<pdfrwt beam="1">  1       21 0.41310705E-01 0.19743095E+03</pdfrwt>
<pdfrwt beam="2">  1       21 0.34525597E-01 0.19743095E+03</pdfrwt>
<totfact> 0.45515620E+04</totfact>
</mgrwt>
</event>
<event>
 4    1  0.4349106E+000  0.1887150E+03  0.7546771E-02  0.1159625E+00
         21   -1    0    0  501  502  0.00000000000E+00  0.00000000000E+00  0.11472373577E+03  0.11472373577E+03  0.00000000000E+00 0.  1.
         21   -1    0    0  502  503 -0.00000000000E+00 -0.00000000000E+00 -0.31160617732E+03  0.31160617732E+03  0.00000000000E+00 0. -1.
          6    1    1    2  501    0  0.63376577076E+02  0.40838304228E+02 -0.85328817671E+02  0.20710954768E+03  0.17300000000E+03 0.  1.
         -6    1    1    2    0  503 -0.63376577076E+02 -0.40838304228E+02 -0.11155362387E+03  0.21922036542E+03  0.17300000000E+03 0.  1.
<mgrwt>
<rscale>  2 0.18871502E+03</rscale>
<asrwt>0</asrwt>
<pdfrwt beam="1">  1       21 0.17649806E-01 0.18871502E+03</pdfrwt>
<pdfrwt beam="2">  1       21 0.47939411E-01 0.18871502E+03</pdfrwt>
<totfact> 0.12124593E+05</totfact>
</mgrwt>
</event>
<event>
 4    1  0.4349106E+000  0.2269810E+03  0.7546771E-02  0.1128783E+00
         21   -1    0    0  503  502  0.00000000000E+00  0.00000000000E+00  0.22524969722E+03  0.22524969722E+03  0.00000000000E+00 0.  1.
         21   -1    0    0  501  503 -0.00000000000E+00 -0.00000000000E+00 -0.25339007074E+03  0.25339007074E+03  0.00000000000E+00 0.  1.
          6    1    1    2  501    0 -0.79672716830E+02 -0.12346516070E+03 -0.88735566667E+02  0.24370963975E+03  0.17300000000E+03 0.  1.
         -6    1    1    2    0  502  0.79672716830E+02  0.12346516070E+03  0.60595193146E+02  0.23493012822E+03  0.17300000000E+03 0.  1.
<mgrwt>
<rscale>  2 0.22698103E+03</rscale>
<asrwt>0</asrwt>
<pdfrwt beam="1">  1       21 0.34653800E-01 0.22698103E+03</pdfrwt>
<pdfrwt beam="2">  1       21 0.38983087E-01 0.22698103E+03</pdfrwt>
<totfact> 0.50114367E+04</totfact>
</mgrwt>
</event>
<event>
 4    1  0.4349106E+000  0.3173664E+03  0.7546771E-02  0.1076868E+00
         21   -1    0    0  503  502  0.00000000000E+00  0.00000000000E+00  0.46613217186E+03  0.46613217186E+03  0.00000000000E+00 0.  1.
         21   -1    0    0  501  503 -0.00000000000E+00 -0.00000000000E+00 -0.22442944209E+03  0.22442944209E+03  0.00000000000E+00 0. -1.
          6    1    1    2  501    0  0.26066889801E+03  0.53330799760E+02  0.54250008866E+02  0.32196973779E+03  0.17300000000E+03 0. -1.
         -6    1    1    2    0  502 -0.26066889801E+03 -0.53330799760E+02  0.18745272090E+03  0.36859187615E+03  0.17300000000E+03 0.  1.
<mgrwt>
<rscale>  2 0.31736643E+03</rscale>
<asrwt>0</asrwt>
<pdfrwt beam="1">  1       21 0.71712642E-01 0.31736643E+03</pdfrwt>
<pdfrwt beam="2">  1       21 0.34527607E-01 0.31736643E+03</pdfrwt>
<totfact> 0.13310004E+04</totfact>
</mgrwt>
</event>
<event>
 4    1  0.4349106E+000  0.1861910E+03  0.7546771E-02  0.1161942E+00
         21   -1    0    0  501  502  0.00000000000E+00  0.00000000000E+00  0.53469517531E+02  0.53469517531E+02  0.00000000000E+00 0. -1.
         21   -1    0    0  502  503 -0.00000000000E+00 -0.00000000000E+00 -0.87776904268E+03  0.87776904268E+03  0.00000000000E+00 0. -1.
          6    1    1    2  501    0 -0.65056051141E+02 -0.22490042574E+02 -0.17410794735E+03  0.25491306192E+03  0.17300000000E+03 0. -1.
         -6    1    1    2    0  503  0.65056051141E+02  0.22490042574E+02 -0.65019157779E+03  0.67632549829E+03  0.17300000000E+03 0. -1.
<mgrwt>
<rscale>  2 0.18619101E+03</rscale>
<asrwt>0</asrwt>
<pdfrwt beam="1">  1       21 0.82260801E-02 0.18619101E+03</pdfrwt>
<pdfrwt beam="2">  1       21 0.13504138E+00 0.18619101E+03</pdfrwt>
<totfact> 0.45031265E+04</totfact>
</mgrwt>
</event>
<event>
 4    1  0.4349106E+000  0.3241541E+03  0.7546771E-02  0.1073753E+00
         21   -1    0    0  501  502  0.00000000000E+00  0.00000000000E+00  0.22710113393E+03  0.22710113393E+03  0.00000000000E+00 0.  1.
         21   -1    0    0  502  503 -0.00000000000E+00 -0.00000000000E+00 -0.68918461345E+03  0.68918461345E+03  0.00000000000E+00 0. -1.
          6    1    1    2  501    0 -0.27311869358E+03  0.23517135107E+02  0.31602947164E+02  0.32569099265E+03  0.17300000000E+03 0.  1.
         -6    1    1    2    0  503  0.27311869358E+03 -0.23517135107E+02 -0.49368642669E+03  0.59059475473E+03  0.17300000000E+03 0. -1.
<mgrwt>
<rscale>  2 0.32415409E+03</rscale>
<asrwt>0</asrwt>
<pdfrwt beam="1">  1       21 0.34938637E-01 0.32415409E+03</pdfrwt>
<pdfrwt beam="2">  1       21 0.10602840E+00 0.32415409E+03</pdfrwt>
<totfact> 0.51983096E+03</totfact>
</mgrwt>
</event>
<event>
 4    1  0.4349106E+000  0.4742919E+03  0.7546771E-02  0.1020716E+00
         21   -1    0    0  501  502  0.00000000000E+00  0.00000000000E+00  0.14286394450E+03  0.14286394450E+03  0.00000000000E+00 0. -1.
         21   -1    0    0  502  503 -0.00000000000E+00 -0.00000000000E+00 -0.17303039374E+04  0.17303039374E+04  0.00000000000E+00 0.  1.
          6    1    1    2  501    0  0.20217466699E+03  0.39261843208E+03 -0.51276128086E+03  0.69848189692E+03  0.17300000000E+03 0. -1.
         -6    1    1    2    0  503 -0.20217466699E+03 -0.39261843208E+03 -0.10746787120E+04  0.11746859849E+04  0.17300000000E+03 0.  1.
<mgrwt>
<rscale>  2 0.47429192E+03</rscale>
<asrwt>0</asrwt>
<pdfrwt beam="1">  1       21 0.21979067E-01 0.47429192E+03</pdfrwt>
<pdfrwt beam="2">  1       21 0.26620062E+00 0.47429192E+03</pdfrwt>
<totfact> 0.83175272E+02</totfact>
</mgrwt>
</event>
<event>
 4    1  0.4349106E+000  0.2036334E+03  0.7546771E-02  0.1146709E+00
         21   -1    0    0  501  502  0.00000000000E+00  0.00000000000E+00  0.19600837098E+03  0.19600837098E+03  0.00000000000E+00 0. -1.
         21   -1    0    0  502  503 -0.00000000000E+00 -0.00000000000E+00 -0.27416390492E+03  0.27416390492E+03  0.00000000000E+00 0. -1.
          6    1    1    2  501    0 -0.15779906335E+01  0.10740147235E+03  0.73263589683E+02  0.21641192179E+03  0.17300000000E+03 0. -1.
         -6    1    1    2    0  503  0.15779906335E+01 -0.10740147235E+03 -0.15141912362E+03  0.25376035411E+03  0.17300000000E+03 0. -1.
<mgrwt>
<rscale>  2 0.20363341E+03</rscale>
<asrwt>0</asrwt>
<pdfrwt beam="1">  1       21 0.30155134E-01 0.20363341E+03</pdfrwt>
<pdfrwt beam="2">  1       21 0.42179062E-01 0.20363341E+03</pdfrwt>
<totfact> 0.56769961E+04</totfact>
</mgrwt>
</event>
<event>
 4    1  0.4349106E+000  0.3390070E+03  0.7546771E-02  0.1067220E+00
         21   -1    0    0  503  502  0.00000000000E+00  0.00000000000E+00  0.25814635969E+04  0.25814635969E+04  0.00000000000E+00 0. -1.
         21   -1    0    0  501  503 -0.00000000000E+00 -0.00000000000E+00 -0.23557307107E+03  0.23557307107E+03  0.00000000000E+00 0.  1.
          6    1    1    2  501    0 -0.27533828745E+03 -0.95841414514E+02 -0.95515794919E+02  0.35220592890E+03  0.17300000000E+03 0.  1.
         -6    1    1    2    0  502  0.27533828745E+03  0.95841414514E+02  0.24414063208E+04  0.24648307391E+04  0.17300000000E+03 0. -1.
<mgrwt>
<rscale>  2 0.33900700E+03</rscale>
<asrwt>0</asrwt>
<pdfrwt beam="1">  1       21 0.39714823E+00 0.33900700E+03</pdfrwt>
<pdfrwt beam="2">  1       21 0.36242013E-01 0.33900700E+03</pdfrwt>
<totfact> 0.54472854E+01</totfact>
</mgrwt>
</event>
<event>
 4    1  0.4349106E+000  0.2003167E+03  0.7546771E-02  0.1149472E+00
         21   -1    0    0  503  502  0.00000000000E+00  0.00000000000E+00  0.34013646650E+03  0.34013646650E+03  0.00000000000E+00 0.  1.
         21   -1    0    0  501  503 -0.00000000000E+00 -0.00000000000E+00 -0.11797309489E+03  0.11797309489E+03  0.00000000000E+00 0. -1.
          6    1    1    2  501    0  0.48799026865E+02 -0.88410705839E+02  0.11152998660E+03  0.22927218724E+03  0.17300000000E+03 0.  1.
         -6    1    1    2    0  502 -0.48799026865E+02  0.88410705839E+02  0.11063338502E+03  0.22883737415E+03  0.17300000000E+03 0. -1.
<mgrwt>
<rscale>  2 0.20031674E+03</rscale>
<asrwt>0</asrwt>
<pdfrwt beam="1">  1       21 0.52328687E-01 0.20031674E+03</pdfrwt>
<pdfrwt beam="2">  1       21 0.18149707E-01 0.20031674E+03</pdfrwt>
<totfact> 0.95481198E+04</totfact>
</mgrwt>
</event>
<event>
 4    1  0.4349106E+000  0.2195561E+03  0.7546771E-02  0.1134214E+00
         21   -1    0    0  501  502  0.00000000000E+00  0.00000000000E+00  0.22479558101E+03  0.22479558101E+03  0.00000000000E+00 0. -1.
         21   -1    0    0  502  503 -0.00000000000E+00 -0.00000000000E+00 -0.26113034717E+03  0.26113034717E+03  0.00000000000E+00 0. -1.
          6    1    1    2  501    0 -0.10686518630E+03 -0.82799298725E+02  0.84570495314E+02  0.23528081220E+03  0.17300000000E+03 0. -1.
         -6    1    1    2    0  503  0.10686518630E+03  0.82799298725E+02 -0.12090526147E+03  0.25064511598E+03  0.17300000000E+03 0. -1.
<mgrwt>
<rscale>  2 0.21955612E+03</rscale>
<asrwt>0</asrwt>
<pdfrwt beam="1">  1       21 0.34583936E-01 0.21955612E+03</pdfrwt>
<pdfrwt beam="2">  1       21 0.40173900E-01 0.21955612E+03</pdfrwt>
<totfact> 0.47498718E+04</totfact>
</mgrwt>
</event>
<event>
 4    1  0.4349106E+000  0.2243994E+03  0.7546771E-02  0.1130645E+00
         21   -1    0    0  501  502  0.00000000000E+00  0.00000000000E+00  0.96262738506E+02  0.96262738506E+02  0.00000000000E+00 0. -1.
         21   -1    0    0  502  503 -0.00000000000E+00 -0.00000000000E+00 -0.61574711461E+03  0.61574711461E+03  0.00000000000E+00 0. -1.
          6    1    1    2  501    0 -0.12235078330E+03  0.73867402467E+02 -0.12165000699E+03  0.25525248583E+03  0.17300000000E+03 0. -1.
         -6    1    1    2    0  503  0.12235078330E+03 -0.73867402467E+02 -0.39783436911E+03  0.45675736728E+03  0.17300000000E+03 0. -1.
<mgrwt>
<rscale>  2 0.22439944E+03</rscale>
<asrwt>0</asrwt>
<pdfrwt beam="1">  1       21 0.14809651E-01 0.22439944E+03</pdfrwt>
<pdfrwt beam="2">  1       21 0.94730331E-01 0.22439944E+03</pdfrwt>
<totfact> 0.36823619E+04</totfact>
</mgrwt>
</event>
<event>
 4    1  0.4349106E+000  0.1824531E+03  0.7546771E-02  0.1165450E+00
         21   -1    0    0  501  502  0.00000000000E+00  0.00000000000E+00  0.35782450852E+03  0.35782450852E+03  0.00000000000E+00 0. -1.
         21   -1    0    0  502  503 -0.00000000000E+00 -0.00000000000E+00 -0.93196832094E+02  0.93196832094E+02  0.00000000000E+00 0. -1.
          6    1    1    2  501    0 -0.57391340628E+02 -0.81465663466E+01  0.14179751909E+03  0.23107502882E+03  0.17300000000E+03 0. -1.
         -6    1    1    2    0  503  0.57391340628E+02  0.81465663466E+01  0.12283015733E+03  0.21994631180E+03  0.17300000000E+03 0. -1.
<mgrwt>
<rscale>  2 0.18245310E+03</rscale>
<asrwt>0</asrwt>
<pdfrwt beam="1">  1       21 0.55049924E-01 0.18245310E+03</pdfrwt>
<pdfrwt beam="2">  1       21 0.14337974E-01 0.18245310E+03</pdfrwt>
<totfact> 0.13303135E+05</totfact>
</mgrwt>
</event>
<event>
 4    1  0.4349106E+000  0.1830168E+03  0.7546771E-02  0.1164915E+00
         21   -1    0    0  501  502  0.00000000000E+00  0.00000000000E+00  0.59647420933E+02  0.59647420933E+02  0.00000000000E+00 0.  1.
         21   -1    0    0  502  503 -0.00000000000E+00 -0.00000000000E+00 -0.67582485406E+03  0.67582485406E+03  0.00000000000E+00 0.  1.
          6    1    1    2  501    0 -0.45504528844E+02  0.38671452135E+02 -0.15687531080E+03  0.24104980086E+03  0.17300000000E+03 0.  1.
         -6    1    1    2    0  503  0.45504528844E+02 -0.38671452135E+02 -0.45930212232E+03  0.49442247413E+03  0.17300000000E+03 0.  1.
<mgrwt>
<rscale>  2 0.18301678E+03</rscale>
<asrwt>0</asrwt>
<pdfrwt beam="1">  1       21 0.91765257E-02 0.18301678E+03</pdfrwt>
<pdfrwt beam="2">  1       21 0.10397306E+00 0.18301678E+03</pdfrwt>
<totfact> 0.70932451E+04</totfact>
</mgrwt>
</event>
<event>
 4    1  0.4349106E+000  0.1869393E+03  0.7546771E-02  0.1161251E+00
         21   -1    0    0  501  502  0.00000000000E+00  0.00000000000E+00  0.13646399648E+03  0.13646399648E+03  0.00000000000E+00 0.  1.
         21   -1    0    0  502  503 -0.00000000000E+00 -0.00000000000E+00 -0.41541234044E+03  0.41541234044E+03  0.00000000000E+00 0.  1.
          6    1    1    2  501    0 -0.51624278855E+01  0.70644532849E+02  0.31416379522E+02  0.18956078072E+03  0.17300000000E+03 0.  1.
         -6    1    1    2    0  503  0.51624278855E+01 -0.70644532849E+02 -0.31036472348E+03  0.36231555620E+03  0.17300000000E+03 0.  1.
<mgrwt>
<rscale>  2 0.18693930E+03</rscale>
<asrwt>0</asrwt>
<pdfrwt beam="1">  1       21 0.20994461E-01 0.18693930E+03</pdfrwt>
<pdfrwt beam="2">  1       21 0.63909591E-01 0.18693930E+03</pdfrwt>
<totfact> 0.47791512E+04</totfact>
</mgrwt>
</event>
<event>
 4    1  0.4349106E+000  0.1956404E+03  0.7546771E-02  0.1153470E+00
         21   -1    0    0  503  502  0.00000000000E+00  0.00000000000E+00  0.47705092860E+03  0.47705092860E+03  0.00000000000E+00 0. -1.
         21   -1    0    0  501  503 -0.00000000000E+00 -0.00000000000E+00 -0.85418793708E+03  0.85418793708E+03  0.00000000000E+00 0. -1.
          6    1    1    2  501    0 -0.26543291132E+02  0.87416411595E+02 -0.82215679673E+03  0.84511358629E+03  0.17300000000E+03 0. -1.
         -6    1    1    2    0  502  0.26543291132E+02 -0.87416411595E+02  0.44501978826E+03  0.48612527939E+03  0.17300000000E+03 0. -1.
<mgrwt>
<rscale>  2 0.19564042E+03</rscale>
<asrwt>0</asrwt>
<pdfrwt beam="1">  1       21 0.73392451E-01 0.19564042E+03</pdfrwt>
<pdfrwt beam="2">  1       21 0.13141353E+00 0.19564042E+03</pdfrwt>
<totfact> 0.69957172E+02</totfact>
</mgrwt>
</event>
<event>
 4    1  0.4349106E+000  0.1789665E+03  0.7546771E-02  0.1168807E+00
         21   -1    0    0  501  502  0.00000000000E+00  0.00000000000E+00  0.65050522360E+02  0.65050522360E+02  0.00000000000E+00 0.  1.
         21   -1    0    0  502  503 -0.00000000000E+00 -0.00000000000E+00 -0.49841661481E+03  0.49841661481E+03  0.00000000000E+00 0.  1.
          6    1    1    2  501    0  0.44405577341E+02  0.11320912971E+02 -0.18565550770E+03  0.25787009503E+03  0.17300000000E+03 0.  1.
         -6    1    1    2    0  503 -0.44405577341E+02 -0.11320912971E+02 -0.24771058474E+03  0.30559704214E+03  0.17300000000E+03 0.  1.
<mgrwt>
<rscale>  2 0.17896653E+03</rscale>
<asrwt>0</asrwt>
<pdfrwt beam="1">  1       21 0.10007772E-01 0.17896653E+03</pdfrwt>
<pdfrwt beam="2">  1       21 0.76679481E-01 0.17896653E+03</pdfrwt>
<totfact> 0.12322482E+05</totfact>
</mgrwt>
</event>
<event>
 4    1  0.4349106E+000  0.2165274E+03  0.7546771E-02  0.1136499E+00
         21   -1    0    0  503  502  0.00000000000E+00  0.00000000000E+00  0.14293960138E+03  0.14293960138E+03  0.00000000000E+00 0.  1.
         21   -1    0    0  501  503 -0.00000000000E+00 -0.00000000000E+00 -0.32937842007E+03  0.32937842007E+03  0.00000000000E+00 0.  1.
          6    1    1    2  501    0  0.11525585649E+03 -0.60590531934E+02 -0.10849923953E+03  0.24219044158E+03  0.17300000000E+03 0.  1.
         -6    1    1    2    0  502 -0.11525585649E+03  0.60590531934E+02 -0.77939579169E+02  0.23012757987E+03  0.17300000000E+03 0.  1.
<mgrwt>
<rscale>  2 0.21652742E+03</rscale>
<asrwt>0</asrwt>
<pdfrwt beam="1">  1       21 0.21990708E-01 0.21652742E+03</pdfrwt>
<pdfrwt beam="2">  1       21 0.50673603E-01 0.21652742E+03</pdfrwt>
<totfact> 0.70840455E+04</totfact>
</mgrwt>
</event>
<event>
 4    1  0.4349106E+000  0.1740638E+03  0.7546771E-02  0.1173675E+00
         21   -1    0    0  501  502  0.00000000000E+00  0.00000000000E+00  0.69542198274E+02  0.69542198274E+02  0.00000000000E+00 0.  1.
         21   -1    0    0  502  503 -0.00000000000E+00 -0.00000000000E+00 -0.79857144765E+03  0.79857144765E+03  0.00000000000E+00 0.  1.
          6    1    1    2  501    0  0.55300242966E+01 -0.18402161947E+02 -0.71912542254E+02  0.18833383782E+03  0.17300000000E+03 0.  1.
         -6    1    1    2    0  503 -0.55300242966E+01  0.18402161947E+02 -0.65711670712E+03  0.67977980810E+03  0.17300000000E+03 0.  1.
<mgrwt>
<rscale>  2 0.17406384E+03</rscale>
<asrwt>0</asrwt>
<pdfrwt beam="1">  1       21 0.10698799E-01 0.17406384E+03</pdfrwt>
<pdfrwt beam="2">  1       21 0.12285715E+00 0.17406384E+03</pdfrwt>
<totfact> 0.36243965E+04</totfact>
</mgrwt>
</event>
<event>
 4    1  0.4349106E+000  0.2041643E+03  0.7546771E-02  0.1146272E+00
         21   -1    0    0  503  502  0.00000000000E+00  0.00000000000E+00  0.97746801439E+02  0.97746801439E+02  0.00000000000E+00 0. -1.
         21   -1    0    0  501  503 -0.00000000000E+00 -0.00000000000E+00 -0.70700996639E+03  0.70700996639E+03  0.00000000000E+00 0. -1.
          6    1    1    2  501    0  0.93462560556E+02  0.54943774716E+02 -0.55811121975E+03  0.59428208977E+03  0.17300000000E+03 0. -1.
         -6    1    1    2    0  502 -0.93462560556E+02 -0.54943774716E+02 -0.51151945193E+02  0.21047467806E+03  0.17300000000E+03 0. -1.
<mgrwt>
<rscale>  2 0.20416432E+03</rscale>
<asrwt>0</asrwt>
<pdfrwt beam="1">  1       21 0.15037969E-01 0.20416432E+03</pdfrwt>
<pdfrwt beam="2">  1       21 0.10877077E+00 0.20416432E+03</pdfrwt>
<totfact> 0.26025606E+04</totfact>
</mgrwt>
</event>
<event>
 4    1  0.4349106E+000  0.1782676E+03  0.7546771E-02  0.1169490E+00
         21   -1    0    0  503  502  0.00000000000E+00  0.00000000000E+00  0.29939543220E+03  0.29939543220E+03  0.00000000000E+00 0.  1.
         21   -1    0    0  501  503 -0.00000000000E+00 -0.00000000000E+00 -0.23254774070E+03  0.23254774070E+03  0.00000000000E+00 0.  1.
          6    1    1    2  501    0 -0.42971960221E+02 -0.19365183794E+01 -0.16266701904E+03  0.24132943988E+03  0.17300000000E+03 0.  1.
         -6    1    1    2    0  502  0.42971960221E+02  0.19365183794E+01  0.22951471054E+03  0.29061373302E+03  0.17300000000E+03 0.  1.
<mgrwt>
<rscale>  2 0.17826761E+03</rscale>
<asrwt>0</asrwt>
<pdfrwt beam="1">  1       21 0.46060835E-01 0.17826761E+03</pdfrwt>
<pdfrwt beam="2">  1       21 0.35776576E-01 0.17826761E+03</pdfrwt>
<totfact> 0.34285354E+04</totfact>
</mgrwt>
</event>
<event>
 4    1  0.4349106E+000  0.2049214E+03  0.7546771E-02  0.1145652E+00
         21   -1    0    0  501  502  0.00000000000E+00  0.00000000000E+00  0.48782902004E+03  0.48782902004E+03  0.00000000000E+00 0. -1.
         21   -1    0    0  502  503 -0.00000000000E+00 -0.00000000000E+00 -0.20526877432E+03  0.20526877432E+03  0.00000000000E+00 0.  1.
          6    1    1    2  501    0 -0.10968540508E+03  0.57358543424E+01  0.40535009087E+03  0.45420423190E+03  0.17300000000E+03 0. -1.
         -6    1    1    2    0  503  0.10968540508E+03 -0.57358543424E+01 -0.12278984514E+03  0.23889356246E+03  0.17300000000E+03 0.  1.
<mgrwt>
<rscale>  2 0.20492142E+03</rscale>
<asrwt>0</asrwt>
<pdfrwt beam="1">  1       21 0.75050618E-01 0.20492142E+03</pdfrwt>
<pdfrwt beam="2">  1       21 0.31579812E-01 0.20492142E+03</pdfrwt>
<totfact> 0.15182763E+04</totfact>
</mgrwt>
</event>
<event>
 4    1  0.4349106E+000  0.2205394E+03  0.7546771E-02  0.1133482E+00
         21   -1    0    0  503  502  0.00000000000E+00  0.00000000000E+00  0.79544724838E+03  0.79544724838E+03  0.00000000000E+00 0. -1.
         21   -1    0    0  501  503 -0.00000000000E+00 -0.00000000000E+00 -0.62097989830E+02  0.62097989830E+02  0.00000000000E+00 0. -1.
          6    1    1    2  501    0  0.10520074009E+03 -0.87415280729E+02  0.31355794361E+03  0.38334868074E+03  0.17300000000E+03 0. -1.
         -6    1    1    2    0  502 -0.10520074009E+03  0.87415280729E+02  0.41979131493E+03  0.47419655747E+03  0.17300000000E+03 0. -1.
<mgrwt>
<rscale>  2 0.22053940E+03</rscale>
<asrwt>0</asrwt>
<pdfrwt beam="1">  1       21 0.12237649E+00 0.22053940E+03</pdfrwt>
<pdfrwt beam="2">  1       21 0.95535375E-02 0.22053940E+03</pdfrwt>
<totfact> 0.43584991E+04</totfact>
</mgrwt>
</event>
<event>
 4    1  0.4349106E+000  0.1993503E+03  0.7546771E-02  0.1150288E+00
         21   -1    0    0  501  502  0.00000000000E+00  0.00000000000E+00  0.40370390320E+03  0.40370390320E+03  0.00000000000E+00 0. -1.
         21   -1    0    0  502  503 -0.00000000000E+00 -0.00000000000E+00 -0.11030398136E+03  0.11030398136E+03  0.00000000000E+00 0.  1.
          6    1    1    2  501    0 -0.29140823584E+02  0.94669813036E+02  0.23098718229E+03  0.30511578045E+03  0.17300000000E+03 0. -1.
         -6    1    1    2    0  503  0.29140823584E+02 -0.94669813036E+02  0.62412739547E+02  0.20889210410E+03  0.17300000000E+03 0.  1.
<mgrwt>
<rscale>  2 0.19935035E+03</rscale>
<asrwt>0</asrwt>
<pdfrwt beam="1">  1       21 0.62108292E-01 0.19935035E+03</pdfrwt>
<pdfrwt beam="2">  1       21 0.16969844E-01 0.19935035E+03</pdfrwt>
<totfact> 0.75066455E+04</totfact>
</mgrwt>
</event>
<event>
 4    1  0.4349106E+000  0.1731317E+03  0.7546771E-02  0.1174621E+00
         21   -1    0    0  503  502  0.00000000000E+00  0.00000000000E+00  0.35057069367E+03  0.35057069367E+03  0.00000000000E+00 0. -1.
         21   -1    0    0  501  503 -0.00000000000E+00 -0.00000000000E+00 -0.85745622022E+02  0.85745622022E+02  0.00000000000E+00 0. -1.
          6    1    1    2  501    0  0.46985088182E+00 -0.67361243505E+01  0.14403418117E+03  0.22521199230E+03  0.17300000000E+03 0.  1.
         -6    1    1    2    0  502 -0.46985088182E+00  0.67361243505E+01  0.12079089047E+03  0.21110432339E+03  0.17300000000E+03 0.  1.
<mgrwt>
<rscale>  2 0.17313173E+03</rscale>
<asrwt>0</asrwt>
<pdfrwt beam="1">  1       21 0.53933952E-01 0.17313173E+03</pdfrwt>
<pdfrwt beam="2">  1       21 0.13191634E-01 0.17313173E+03</pdfrwt>
<totfact> 0.16195723E+05</totfact>
</mgrwt>
</event>
<event>
 4    1  0.4349106E+000  0.1824694E+03  0.7546771E-02  0.1165434E+00
         21   -1    0    0  501  502  0.00000000000E+00  0.00000000000E+00  0.50767934634E+03  0.50767934634E+03  0.00000000000E+00 0. -1.
         21   -1    0    0  502  503 -0.00000000000E+00 -0.00000000000E+00 -0.67695513431E+02  0.67695513431E+02  0.00000000000E+00 0.  1.
          6    1    1    2  501    0 -0.22177484801E+02  0.53612112643E+02  0.27081345315E+03  0.32655018889E+03  0.17300000000E+03 0. -1.
         -6    1    1    2    0  503  0.22177484801E+02 -0.53612112643E+02  0.16917037976E+03  0.24882467089E+03  0.17300000000E+03 0.  1.
<mgrwt>
<rscale>  2 0.18246945E+03</rscale>
<asrwt>0</asrwt>
<pdfrwt beam="1">  1       21 0.78104512E-01 0.18246945E+03</pdfrwt>
<pdfrwt beam="2">  1       21 0.10414695E-01 0.18246945E+03</pdfrwt>
<totfact> 0.11005768E+05</totfact>
</mgrwt>
</event>
<event>
 4    1  0.4349106E+000  0.2164273E+03  0.7546771E-02  0.1136575E+00
         21   -1    0    0  503  502  0.00000000000E+00  0.00000000000E+00  0.91258355577E+03  0.91258355577E+03  0.00000000000E+00 0.  1.
         21   -1    0    0  501  503 -0.00000000000E+00 -0.00000000000E+00 -0.54353136257E+02  0.54353136257E+02  0.00000000000E+00 0.  1.
          6    1    1    2  501    0 -0.12612708374E+03  0.31681721929E+02  0.31505003645E+03  0.38222676283E+03  0.17300000000E+03 0.  1.
         -6    1    1    2    0  502  0.12612708374E+03 -0.31681721929E+02  0.54318038306E+03  0.58470992919E+03  0.17300000000E+03 0.  1.
<mgrwt>
<rscale>  2 0.21642729E+03</rscale>
<asrwt>0</asrwt>
<pdfrwt beam="1">  1       21 0.14039746E+00 0.21642729E+03</pdfrwt>
<pdfrwt beam="2">  1       21 0.83620216E-02 0.21642729E+03</pdfrwt>
<totfact> 0.38930115E+04</totfact>
</mgrwt>
</event>
<event>
 4    1  0.4349106E+000  0.1888139E+03  0.7546771E-02  0.1159535E+00
         21   -1    0    0  501  502  0.00000000000E+00  0.00000000000E+00  0.12528615756E+03  0.12528615756E+03  0.00000000000E+00 0.  1.
         21   -1    0    0  502  503 -0.00000000000E+00 -0.00000000000E+00 -0.83899579934E+03  0.83899579934E+03  0.00000000000E+00 0.  1.
          6    1    1    2  501    0  0.41196161913E+02  0.63439554695E+02  0.35087409886E+02  0.19204641936E+03  0.17300000000E+03 0.  1.
         -6    1    1    2    0  503 -0.41196161913E+02 -0.63439554695E+02 -0.74879705167E+03  0.77223553754E+03  0.17300000000E+03 0.  1.
<mgrwt>
<rscale>  2 0.18881393E+03</rscale>
<asrwt>0</asrwt>
<pdfrwt beam="1">  1       21 0.19274794E-01 0.18881393E+03</pdfrwt>
<pdfrwt beam="2">  1       21 0.12907627E+00 0.18881393E+03</pdfrwt>
<totfact> 0.10913243E+04</totfact>
</mgrwt>
</event>
<event>
 4    1  0.4349106E+000  0.1790383E+03  0.7546771E-02  0.1168737E+00
         21   -1    0    0  503  502  0.00000000000E+00  0.00000000000E+00  0.74827267176E+02  0.74827267176E+02  0.00000000000E+00 0. -1.
         21   -1    0    0  501  503 -0.00000000000E+00 -0.00000000000E+00 -0.10756267945E+04  0.10756267945E+04  0.00000000000E+00 0. -1.
          6    1    1    2  501    0  0.44135751645E+02  0.13332868688E+02 -0.94661297454E+03  0.96339548138E+03  0.17300000000E+03 0. -1.
         -6    1    1    2    0  502 -0.44135751645E+02 -0.13332868688E+02 -0.54186552777E+02  0.18705858030E+03  0.17300000000E+03 0. -1.
<mgrwt>
<rscale>  2 0.17903835E+03</rscale>
<asrwt>0</asrwt>
<pdfrwt beam="1">  1       21 0.11511888E-01 0.17903835E+03</pdfrwt>
<pdfrwt beam="2">  1       21 0.16548103E+00 0.17903835E+03</pdfrwt>
<totfact> 0.14666632E+04</totfact>
</mgrwt>
</event>
<event>
 4    1  0.4349106E+000  0.2610592E+03  0.7546771E-02  0.1106508E+00
         21   -1    0    0  501  502  0.00000000000E+00  0.00000000000E+00  0.24300806771E+04  0.24300806771E+04  0.00000000000E+00 0. -1.
         21   -1    0    0  502  503 -0.00000000000E+00 -0.00000000000E+00 -0.76866447420E+02  0.76866447420E+02  0.00000000000E+00 0. -1.
          6    1    1    2  501    0  0.14307555458E+03 -0.13323777774E+03  0.21755750235E+04  0.21911820104E+04  0.17300000000E+03 0. -1.
         -6    1    1    2    0  503 -0.14307555458E+03  0.13323777774E+03  0.17763920618E+03  0.31576511414E+03  0.17300000000E+03 0. -1.
<mgrwt>
<rscale>  2 0.26105923E+03</rscale>
<asrwt>0</asrwt>
<pdfrwt beam="1">  1       21 0.37385851E+00 0.26105923E+03</pdfrwt>
<pdfrwt beam="2">  1       21 0.11825609E-01 0.26105923E+03</pdfrwt>
<totfact> 0.69340313E+02</totfact>
</mgrwt>
</event>
<event>
 4    1  0.4349106E+000  0.2047425E+03  0.7546771E-02  0.1145798E+00
         21   -1    0    0  503  502  0.00000000000E+00  0.00000000000E+00  0.51717246246E+03  0.51717246246E+03  0.00000000000E+00 0. -1.
         21   -1    0    0  501  503 -0.00000000000E+00 -0.00000000000E+00 -0.15613855413E+03  0.15613855413E+03  0.00000000000E+00 0.  1.
          6    1    1    2  501    0  0.60752983540E+02 -0.91101982097E+02 -0.52937733795E+02  0.21147553005E+03  0.17300000000E+03 0.  1.
         -6    1    1    2    0  502 -0.60752983540E+02  0.91101982097E+02  0.41397164212E+03  0.46183548655E+03  0.17300000000E+03 0. -1.
<mgrwt>
<rscale>  2 0.20474251E+03</rscale>
<asrwt>0</asrwt>
<pdfrwt beam="1">  1       21 0.79564993E-01 0.20474251E+03</pdfrwt>
<pdfrwt beam="2">  1       21 0.24021316E-01 0.20474251E+03</pdfrwt>
<totfact> 0.22594972E+04</totfact>
</mgrwt>
</event>
<event>
 4    1  0.4349106E+000  0.2322143E+03  0.7546771E-02  0.1125091E+00
         21   -1    0    0  503  502  0.00000000000E+00  0.00000000000E+00  0.56678854248E+03  0.56678854248E+03  0.00000000000E+00 0.  1.
         21   -1    0    0  501  503 -0.00000000000E+00 -0.00000000000E+00 -0.34616181179E+03  0.34616181179E+03  0.00000000000E+00 0. -1.
          6    1    1    2  501    0 -0.15086446570E+03  0.35133652824E+02 -0.27840453584E+03  0.36253626874E+03  0.17300000000E+03 0. -1.
         -6    1    1    2    0  502  0.15086446570E+03 -0.35133652824E+02  0.49903126653E+03  0.55041408553E+03  0.17300000000E+03 0.  1.
<mgrwt>
<rscale>  2 0.23221426E+03</rscale>
<asrwt>0</asrwt>
<pdfrwt beam="1">  1       21 0.87198238E-01 0.23221426E+03</pdfrwt>
<pdfrwt beam="2">  1       21 0.53255663E-01 0.23221426E+03</pdfrwt>
<totfact> 0.36591811E+03</totfact>
</mgrwt>
</event>
<event>
 4    1  0.4349106E+000  0.2037762E+03  0.7546771E-02  0.1146592E+00
         21   -1    0    0  503  502  0.00000000000E+00  0.00000000000E+00  0.11547855418E+03  0.11547855418E+03  0.00000000000E+00 0.  1.
         21   -1    0    0  501  503 -0.00000000000E+00 -0.00000000000E+00 -0.42879649839E+03  0.42879649839E+03  0.00000000000E+00 0.  1.
          6    1    1    2  501    0  0.10216577834E+03 -0.34027646668E+02 -0.26598960467E+03  0.33507491221E+03  0.17300000000E+03 0.  1.
         -6    1    1    2    0  502 -0.10216577834E+03  0.34027646668E+02 -0.47328339542E+02  0.20920014036E+03  0.17300000000E+03 0.  1.
<mgrwt>
<rscale>  2 0.20377617E+03</rscale>
<asrwt>0</asrwt>
<pdfrwt beam="1">  1       21 0.17765932E-01 0.20377617E+03</pdfrwt>
<pdfrwt beam="2">  1       21 0.65968691E-01 0.20377617E+03</pdfrwt>
<totfact> 0.60383202E+04</totfact>
</mgrwt>
</event>
<event>
 4    1  0.4349106E+000  0.2475212E+03  0.7546771E-02  0.1114881E+00
         21   -1    0    0  501  502  0.00000000000E+00  0.00000000000E+00  0.70245523816E+03  0.70245523816E+03  0.00000000000E+00 0.  1.
         21   -1    0    0  502  503 -0.00000000000E+00 -0.00000000000E+00 -0.13043923874E+03  0.13043923874E+03  0.00000000000E+00 0.  1.
          6    1    1    2  501    0 -0.17312361275E+03  0.36959138298E+02  0.52572801938E+03  0.58108236383E+03  0.17300000000E+03 0.  1.
         -6    1    1    2    0  503  0.17312361275E+03 -0.36959138298E+02  0.46287980040E+02  0.25181211307E+03  0.17300000000E+03 0.  1.
<mgrwt>
<rscale>  2 0.24752124E+03</rscale>
<asrwt>0</asrwt>
<pdfrwt beam="1">  1       21 0.10807003E+00 0.24752124E+03</pdfrwt>
<pdfrwt beam="2">  1       21 0.20067576E-01 0.24752124E+03</pdfrwt>
<totfact> 0.15127216E+04</totfact>
</mgrwt>
</event>
<event>
 4    1  0.4349106E+000  0.1949361E+03  0.7546771E-02  0.1154083E+00
         21   -1    0    0  503  502  0.00000000000E+00  0.00000000000E+00  0.17470489656E+04  0.17470489656E+04  0.00000000000E+00 0.  1.
         21   -1    0    0  501  503 -0.00000000000E+00 -0.00000000000E+00 -0.27210550872E+02  0.27210550872E+02  0.00000000000E+00 0. -1.
          6    1    1    2  501    0  0.31601431356E+02  0.84097785366E+02  0.46254804280E+03  0.50194698910E+03  0.17300000000E+03 0. -1.
         -6    1    1    2    0  502 -0.31601431356E+02 -0.84097785366E+02  0.12572903720E+04  0.12723125274E+04  0.17300000000E+03 0.  1.
<mgrwt>
<rscale>  2 0.19493611E+03</rscale>
<asrwt>0</asrwt>
<pdfrwt beam="1">  1       21 0.26877668E+00 0.19493611E+03</pdfrwt>
<pdfrwt beam="2">  1       21 0.41862400E-02 0.19493611E+03</pdfrwt>
<totfact> 0.18718716E+04</totfact>
</mgrwt>
</event>
<event>
 4    1  0.4349106E+000  0.2949878E+03  0.7546771E-02  0.1087773E+00
         21   -1    0    0  501  502  0.00000000000E+00  0.00000000000E+00  0.64630489958E+03  0.64630489958E+03  0.00000000000E+00 0. -1.
         21   -1    0    0  502  503 -0.00000000000E+00 -0.00000000000E+00 -0.21668733387E+03  0.21668733387E+03  0.00000000000E+00 0. -1.
          6    1    1    2  501    0  0.13385565928E+02  0.23855744535E+03  0.48032746417E+03  0.56367747954E+03  0.17300000000E+03 0. -1.
         -6    1    1    2    0  503 -0.13385565928E+02 -0.23855744535E+03 -0.50709898456E+02  0.29931475391E+03  0.17300000000E+03 0. -1.
<mgrwt>
<rscale>  2 0.29498784E+03</rscale>
<asrwt>0</asrwt>
<pdfrwt beam="1">  1       21 0.99431522E-01 0.29498784E+03</pdfrwt>
<pdfrwt beam="2">  1       21 0.33336513E-01 0.29498784E+03</pdfrwt>
<totfact> 0.67677726E+03</totfact>
</mgrwt>
</event>
<event>
 4    1  0.4349106E+000  0.1779249E+03  0.7546771E-02  0.1169827E+00
         21   -1    0    0  503  502  0.00000000000E+00  0.00000000000E+00  0.37942592823E+03  0.37942592823E+03  0.00000000000E+00 0.  1.
         21   -1    0    0  501  503 -0.00000000000E+00 -0.00000000000E+00 -0.83675335347E+02  0.83675335347E+02  0.00000000000E+00 0.  1.
          6    1    1    2  501    0 -0.10278607464E+02  0.40281593357E+02  0.13545582976E+03  0.22361918153E+03  0.17300000000E+03 0.  1.
         -6    1    1    2    0  502  0.10278607464E+02 -0.40281593357E+02  0.16029476313E+03  0.23948208205E+03  0.17300000000E+03 0.  1.
<mgrwt>
<rscale>  2 0.17792486E+03</rscale>
<asrwt>0</asrwt>
<pdfrwt beam="1">  1       21 0.58373219E-01 0.17792486E+03</pdfrwt>
<pdfrwt beam="2">  1       21 0.12873129E-01 0.17792486E+03</pdfrwt>
<totfact> 0.14289698E+05</totfact>
</mgrwt>
</event>
<event>
 4    1  0.4349106E+000  0.1755327E+03  0.7546771E-02  0.1172198E+00
         21   -1    0    0  501  502  0.00000000000E+00  0.00000000000E+00  0.38318132844E+03  0.38318132844E+03  0.00000000000E+00 0. -1.
         21   -1    0    0  502  503 -0.00000000000E+00 -0.00000000000E+00 -0.96614471342E+02  0.96614471342E+02  0.00000000000E+00 0. -1.
          6    1    1    2  501    0 -0.29027109502E+02 -0.63361892664E+01  0.45036507218E+02  0.18121812096E+03  0.17300000000E+03 0. -1.
         -6    1    1    2    0  503  0.29027109502E+02  0.63361892664E+01  0.24153034988E+03  0.29857767883E+03  0.17300000000E+03 0. -1.
<mgrwt>
<rscale>  2 0.17553268E+03</rscale>
<asrwt>0</asrwt>
<pdfrwt beam="1">  1       21 0.58950973E-01 0.17553268E+03</pdfrwt>
<pdfrwt beam="2">  1       21 0.14863765E-01 0.17553268E+03</pdfrwt>
<totfact> 0.10802622E+05</totfact>
</mgrwt>
</event>
<event>
 4    1  0.4349106E+000  0.1951999E+03  0.7546771E-02  0.1153853E+00
         21   -1    0    0  503  502  0.00000000000E+00  0.00000000000E+00  0.36400972084E+03  0.36400972084E+03  0.00000000000E+00 0. -1.
         21   -1    0    0  501  503 -0.00000000000E+00 -0.00000000000E+00 -0.10627092256E+03  0.10627092256E+03  0.00000000000E+00 0. -1.
          6    1    1    2  501    0  0.66716022012E+02 -0.61016137839E+02  0.10006084756E+03  0.21935170363E+03  0.17300000000E+03 0. -1.
         -6    1    1    2    0  502 -0.66716022012E+02  0.61016137839E+02  0.15767795072E+03  0.25092893977E+03  0.17300000000E+03 0. -1.
<mgrwt>
<rscale>  2 0.19519989E+03</rscale>
<asrwt>0</asrwt>
<pdfrwt beam="1">  1       21 0.56001495E-01 0.19519989E+03</pdfrwt>
<pdfrwt beam="2">  1       21 0.16349373E-01 0.19519989E+03</pdfrwt>
<totfact> 0.10051917E+05</totfact>
</mgrwt>
</event>
<event>
 4    1  0.4349106E+000  0.2027684E+03  0.7546771E-02  0.1147424E+00
         21   -1    0    0  503  502  0.00000000000E+00  0.00000000000E+00  0.50735229487E+02  0.50735229487E+02  0.00000000000E+00 0.  1.
         21   -1    0    0  501  503 -0.00000000000E+00 -0.00000000000E+00 -0.10716323177E+04  0.10716323177E+04  0.00000000000E+00 0. -1.
          6    1    1    2  501    0  0.62292092049E+02  0.85473474397E+02 -0.78753093926E+03  0.81321583842E+03  0.17300000000E+03 0. -1.
         -6    1    1    2    0  502 -0.62292092049E+02 -0.85473474397E+02 -0.23336614894E+03  0.30915170876E+03  0.17300000000E+03 0.  1.
<mgrwt>
<rscale>  2 0.20276839E+03</rscale>
<asrwt>0</asrwt>
<pdfrwt beam="1">  1       21 0.78054200E-02 0.20276839E+03</pdfrwt>
<pdfrwt beam="2">  1       21 0.16486651E+00 0.20276839E+03</pdfrwt>
<totfact> 0.28875235E+04</totfact>
</mgrwt>
</event>
<event>
 4    1  0.4349106E+000  0.2544314E+03  0.7546771E-02  0.1110536E+00
         21   -1    0    0  501  502  0.00000000000E+00  0.00000000000E+00  0.94804131507E+03  0.94804131507E+03  0.00000000000E+00 0.  1.
         21   -1    0    0  502  503 -0.00000000000E+00 -0.00000000000E+00 -0.69369734156E+02  0.69369734156E+02  0.00000000000E+00 0.  1.
          6    1    1    2  501    0 -0.18386087494E+03 -0.31646848632E+02  0.37567197448E+03  0.45372323808E+03  0.17300000000E+03 0.  1.
         -6    1    1    2    0  503  0.18386087494E+03  0.31646848632E+02  0.50299960644E+03  0.56368781115E+03  0.17300000000E+03 0.  1.
<mgrwt>
<rscale>  2 0.25443141E+03</rscale>
<asrwt>0</asrwt>
<pdfrwt beam="1">  1       21 0.14585250E+00 0.25443141E+03</pdfrwt>
<pdfrwt beam="2">  1       21 0.10672267E-01 0.25443141E+03</pdfrwt>
<totfact> 0.22433654E+04</totfact>
</mgrwt>
</event>
<event>
 4    1  0.4349106E+000  0.2102896E+03  0.7546771E-02  0.1141337E+00
         21   -1    0    0  501  502  0.00000000000E+00  0.00000000000E+00  0.51635618051E+03  0.51635618051E+03  0.00000000000E+00 0. -1.
         21   -1    0    0  502  503 -0.00000000000E+00 -0.00000000000E+00 -0.10039708814E+03  0.10039708814E+03  0.00000000000E+00 0.  1.
          6    1    1    2  501    0 -0.82290089451E+02 -0.86723939513E+02  0.32620036465E+03  0.38810871982E+03  0.17300000000E+03 0. -1.
         -6    1    1    2    0  503  0.82290089451E+02  0.86723939513E+02  0.89758727717E+02  0.22864454883E+03  0.17300000000E+03 0.  1.
<mgrwt>
<rscale>  2 0.21028956E+03</rscale>
<asrwt>0</asrwt>
<pdfrwt beam="1">  1       21 0.79439411E-01 0.21028956E+03</pdfrwt>
<pdfrwt beam="2">  1       21 0.15445706E-01 0.21028956E+03</pdfrwt>
<totfact> 0.51519323E+04</totfact>
</mgrwt>
</event>
<event>
 4    1  0.4349106E+000  0.1998755E+03  0.7546771E-02  0.1149844E+00
         21   -1    0    0  501  502  0.00000000000E+00  0.00000000000E+00  0.14094551099E+03  0.14094551099E+03  0.00000000000E+00 0.  1.
         21   -1    0    0  502  503 -0.00000000000E+00 -0.00000000000E+00 -0.37220593084E+03  0.37220593084E+03  0.00000000000E+00 0.  1.
          6    1    1    2  501    0  0.14744274425E+02 -0.99014281865E+02  0.96655007387E+01  0.20010907912E+03  0.17300000000E+03 0.  1.
         -6    1    1    2    0  503 -0.14744274425E+02  0.99014281865E+02 -0.24092592058E+03  0.31304236271E+03  0.17300000000E+03 0.  1.
<mgrwt>
<rscale>  2 0.19987552E+03</rscale>
<asrwt>0</asrwt>
<pdfrwt beam="1">  1       21 0.21683925E-01 0.19987552E+03</pdfrwt>
<pdfrwt beam="2">  1       21 0.57262451E-01 0.19987552E+03</pdfrwt>
<totfact> 0.56605266E+04</totfact>
</mgrwt>
</event>
<event>
 4    1  0.4349106E+000  0.2417346E+03  0.7546771E-02  0.1118643E+00
         21   -1    0    0  503  502  0.00000000000E+00  0.00000000000E+00  0.33054969768E+03  0.33054969768E+03  0.00000000000E+00 0. -1.
         21   -1    0    0  501  503 -0.00000000000E+00 -0.00000000000E+00 -0.17773145431E+03  0.17773145431E+03  0.00000000000E+00 0. -1.
          6    1    1    2  501    0  0.29668413653E+02  0.16621184890E+03  0.94973562305E+02  0.25972210345E+03  0.17300000000E+03 0. -1.
         -6    1    1    2    0  502 -0.29668413653E+02 -0.16621184890E+03  0.57844681067E+02  0.24855904854E+03  0.17300000000E+03 0. -1.
<mgrwt>
<rscale>  2 0.24173455E+03</rscale>
<asrwt>0</asrwt>
<pdfrwt beam="1">  1       21 0.50853800E-01 0.24173455E+03</pdfrwt>
<pdfrwt beam="2">  1       21 0.27343301E-01 0.24173455E+03</pdfrwt>
<totfact> 0.45860711E+04</totfact>
</mgrwt>
</event>
<event>
 4    1  0.4349106E+000  0.1933823E+03  0.7546771E-02  0.1155446E+00
         21   -1    0    0  503  502  0.00000000000E+00  0.00000000000E+00  0.15251772265E+03  0.15251772265E+03  0.00000000000E+00 0.  1.
         21   -1    0    0  501  503 -0.00000000000E+00 -0.00000000000E+00 -0.26671886376E+03  0.26671886376E+03  0.00000000000E+00 0.  1.
          6    1    1    2  501    0  0.82408317111E+02 -0.26011460909E+02 -0.11664661506E+03  0.22583879125E+03  0.17300000000E+03 0.  1.
         -6    1    1    2    0  502 -0.82408317111E+02  0.26011460909E+02  0.24454739468E+01  0.19339779515E+03  0.17300000000E+03 0.  1.
<mgrwt>
<rscale>  2 0.19338233E+03</rscale>
<asrwt>0</asrwt>
<pdfrwt beam="1">  1       21 0.23464265E-01 0.19338233E+03</pdfrwt>
<pdfrwt beam="2">  1       21 0.41033671E-01 0.19338233E+03</pdfrwt>
<totfact> 0.97732987E+04</totfact>
</mgrwt>
</event>
<event>
 4    1  0.4349106E+000  0.2102132E+03  0.7546771E-02  0.1141397E+00
         21   -1    0    0  503  502  0.00000000000E+00  0.00000000000E+00  0.14670065281E+03  0.14670065281E+03  0.00000000000E+00 0. -1.
         21   -1    0    0  501  503 -0.00000000000E+00 -0.00000000000E+00 -0.35925613861E+03  0.35925613861E+03  0.00000000000E+00 0. -1.
          6    1    1    2  501    0 -0.11788955970E+03 -0.19043255645E+02 -0.20795405725E+03  0.29569322582E+03  0.17300000000E+03 0.  1.
         -6    1    1    2    0  502  0.11788955970E+03  0.19043255645E+02 -0.46014285524E+01  0.21026356559E+03  0.17300000000E+03 0.  1.
<mgrwt>
<rscale>  2 0.21021321E+03</rscale>
<asrwt>0</asrwt>
<pdfrwt beam="1">  1       21 0.22569332E-01 0.21021321E+03</pdfrwt>
<pdfrwt beam="2">  1       21 0.55270174E-01 0.21021321E+03</pdfrwt>
<totfact> 0.56316050E+04</totfact>
</mgrwt>
</event>
<event>
 4    1  0.4349106E+000  0.2256042E+03  0.7546771E-02  0.1129773E+00
         21   -1    0    0  503  502  0.00000000000E+00  0.00000000000E+00  0.14665660073E+03  0.14665660073E+03  0.00000000000E+00 0. -1.
         21   -1    0    0  501  503 -0.00000000000E+00 -0.00000000000E+00 -0.73594480350E+03  0.73594480350E+03  0.00000000000E+00 0.  1.
          6    1    1    2  501    0  0.41134878808E+01  0.14474578374E+03 -0.61543920173E+03  0.65548659309E+03  0.17300000000E+03 0.  1.
         -6    1    1    2    0  502 -0.41134878808E+01 -0.14474578374E+03  0.26150998957E+02  0.22711481114E+03  0.17300000000E+03 0. -1.
<mgrwt>
<rscale>  2 0.22560422E+03</rscale>
<asrwt>0</asrwt>
<pdfrwt beam="1">  1       21 0.22562554E-01 0.22560422E+03</pdfrwt>
<pdfrwt beam="2">  1       21 0.11322228E+00 0.22560422E+03</pdfrwt>
<totfact> 0.10961120E+04</totfact>
</mgrwt>
</event>
<event>
 4    1  0.4349106E+000  0.2076431E+03  0.7546771E-02  0.1143446E+00
         21   -1    0    0  503  502  0.00000000000E+00  0.00000000000E+00  0.46666045938E+03  0.46666045938E+03  0.00000000000E+00 0.  1.
         21   -1    0    0  501  503 -0.00000000000E+00 -0.00000000000E+00 -0.15067306125E+03  0.15067306125E+03  0.00000000000E+00 0. -1.
          6    1    1    2  501    0 -0.97832463176E+02 -0.60128797862E+02 -0.33977475791E+02  0.21040468637E+03  0.17300000000E+03 0. -1.
         -6    1    1    2    0  502  0.97832463176E+02  0.60128797862E+02  0.34996487392E+03  0.40692883427E+03  0.17300000000E+03 0.  1.
<mgrwt>
<rscale>  2 0.20764311E+03</rscale>
<asrwt>0</asrwt>
<pdfrwt beam="1">  1       21 0.71793916E-01 0.20764311E+03</pdfrwt>
<pdfrwt beam="2">  1       21 0.23180471E-01 0.20764311E+03</pdfrwt>
<totfact> 0.30388455E+04</totfact>
</mgrwt>
</event>
<event>
 4    1  0.4349106E+000  0.2136899E+03  0.7546771E-02  0.1138677E+00
         21   -1    0    0  503  502  0.00000000000E+00  0.00000000000E+00  0.11842967889E+03  0.11842967889E+03  0.00000000000E+00 0. -1.
         21   -1    0    0  501  503 -0.00000000000E+00 -0.00000000000E+00 -0.45053588303E+03  0.45053588303E+03  0.00000000000E+00 0. -1.
          6    1    1    2  501    0  0.33979677107E+02 -0.12074671714E+03 -0.27407730485E+03  0.34753669905E+03  0.17300000000E+03 0. -1.
         -6    1    1    2    0  502 -0.33979677107E+02  0.12074671714E+03 -0.58028899288E+02  0.22142886286E+03  0.17300000000E+03 0. -1.
<mgrwt>
<rscale>  2 0.21368993E+03</rscale>
<asrwt>0</asrwt>
<pdfrwt beam="1">  1       21 0.18219950E-01 0.21368993E+03</pdfrwt>
<pdfrwt beam="2">  1       21 0.69313214E-01 0.21368993E+03</pdfrwt>
<totfact> 0.51457262E+04</totfact>
</mgrwt>
</event>
<event>
 4    1  0.4349106E+000  0.1832078E+03  0.7546771E-02  0.1164734E+00
         21   -1    0    0  503  502  0.00000000000E+00  0.00000000000E+00  0.65186262705E+03  0.65186262705E+03  0.00000000000E+00 0.  1.
         21   -1    0    0  501  503 -0.00000000000E+00 -0.00000000000E+00 -0.98910366082E+02  0.98910366082E+02  0.00000000000E+00 0.  1.
          6    1    1    2  501    0  0.15703232858E+02 -0.58219457367E+02  0.16558735897E+02  0.18395458264E+03  0.17300000000E+03 0.  1.
         -6    1    1    2    0  502 -0.15703232858E+02  0.58219457367E+02  0.53639352507E+03  0.56681841049E+03  0.17300000000E+03 0.  1.
<mgrwt>
<rscale>  2 0.18320780E+03</rscale>
<asrwt>0</asrwt>
<pdfrwt beam="1">  1       21 0.10028656E+00 0.18320780E+03</pdfrwt>
<pdfrwt beam="2">  1       21 0.15216980E-01 0.18320780E+03</pdfrwt>
<totfact> 0.31325252E+04</totfact>
</mgrwt>
</event>
<event>
 4    1  0.4349106E+000  0.1997965E+03  0.7546771E-02  0.1149911E+00
         21   -1    0    0  503  502  0.00000000000E+00  0.00000000000E+00  0.11596142174E+03  0.11596142174E+03  0.00000000000E+00 0.  1.
         21   -1    0    0  501  503 -0.00000000000E+00 -0.00000000000E+00 -0.34625273122E+03  0.34625273122E+03  0.00000000000E+00 0. -1.
          6    1    1    2  501    0 -0.75615159692E+02 -0.65360348204E+02 -0.13276324730E+03  0.23988477927E+03  0.17300000000E+03 0.  1.
         -6    1    1    2    0  502  0.75615159692E+02  0.65360348204E+02 -0.97528062181E+02  0.22232937369E+03  0.17300000000E+03 0.  1.
<mgrwt>
<rscale>  2 0.19979647E+03</rscale>
<asrwt>0</asrwt>
<pdfrwt beam="1">  1       21 0.17840219E-01 0.19979647E+03</pdfrwt>
<pdfrwt beam="2">  1       21 0.53269651E-01 0.19979647E+03</pdfrwt>
<totfact> 0.94961353E+04</totfact>
</mgrwt>
</event>
<event>
 4    1  0.4349106E+000  0.2697789E+03  0.7546771E-02  0.1101406E+00
         21   -1    0    0  503  502  0.00000000000E+00  0.00000000000E+00  0.57445367582E+02  0.57445367582E+02  0.00000000000E+00 0. -1.
         21   -1    0    0  501  503 -0.00000000000E+00 -0.00000000000E+00 -0.14563239154E+04  0.14563239154E+04  0.00000000000E+00 0. -1.
          6    1    1    2  501    0 -0.18312030812E+03  0.96532908728E+02 -0.97237222155E+03  0.10091027633E+04  0.17300000000E+03 0. -1.
         -6    1    1    2    0  502  0.18312030812E+03 -0.96532908728E+02 -0.42650632625E+03  0.50466651964E+03  0.17300000000E+03 0. -1.
<mgrwt>
<rscale>  2 0.26977889E+03</rscale>
<asrwt>0</asrwt>
<pdfrwt beam="1">  1       21 0.88377483E-02 0.26977889E+03</pdfrwt>
<pdfrwt beam="2">  1       21 0.22404985E+00 0.26977889E+03</pdfrwt>
<totfact> 0.90254040E+03</totfact>
</mgrwt>
</event>
<event>
 4    1  0.4349106E+000  0.2126930E+03  0.7546771E-02  0.1139451E+00
         21   -1    0    0  501  502  0.00000000000E+00  0.00000000000E+00  0.11134556921E+03  0.11134556921E+03  0.00000000000E+00 0. -1.
         21   -1    0    0  502  503 -0.00000000000E+00 -0.00000000000E+00 -0.41902042622E+03  0.41902042622E+03  0.00000000000E+00 0. -1.
          6    1    1    2  501    0  0.97964232268E+02  0.75579845299E+02 -0.20006420267E+03  0.29199998118E+03  0.17300000000E+03 0. -1.
         -6    1    1    2    0  503 -0.97964232268E+02 -0.75579845299E+02 -0.10761065434E+03  0.23836601424E+03  0.17300000000E+03 0. -1.
<mgrwt>
<rscale>  2 0.21269298E+03</rscale>
<asrwt>0</asrwt>
<pdfrwt beam="1">  1       21 0.17130087E-01 0.21269298E+03</pdfrwt>
<pdfrwt beam="2">  1       21 0.64464681E-01 0.21269298E+03</pdfrwt>
<totfact> 0.67649893E+04</totfact>
</mgrwt>
</event>
<event>
 4    1  0.4349106E+000  0.1807716E+03  0.7546771E-02  0.1167058E+00
         21   -1    0    0  501  502  0.00000000000E+00  0.00000000000E+00  0.37208338060E+03  0.37208338060E+03  0.00000000000E+00 0. -1.
         21   -1    0    0  502  503 -0.00000000000E+00 -0.00000000000E+00 -0.94290954610E+02  0.94290954610E+02  0.00000000000E+00 0. -1.
          6    1    1    2  501    0 -0.36868484334E+02 -0.37283881116E+02  0.19995840851E+03  0.26955841308E+03  0.17300000000E+03 0. -1.
         -6    1    1    2    0  503  0.36868484334E+02  0.37283881116E+02  0.77834017487E+02  0.19681592214E+03  0.17300000000E+03 0. -1.
<mgrwt>
<rscale>  2 0.18077160E+03</rscale>
<asrwt>0</asrwt>
<pdfrwt beam="1">  1       21 0.57243596E-01 0.18077160E+03</pdfrwt>
<pdfrwt beam="2">  1       21 0.14506301E-01 0.18077160E+03</pdfrwt>
<totfact> 0.11996704E+05</totfact>
</mgrwt>
</event>
<event>
 4    1  0.4349106E+000  0.2199771E+03  0.7546771E-02  0.1133900E+00
         21   -1    0    0  501  502  0.00000000000E+00  0.00000000000E+00  0.10232385617E+03  0.10232385617E+03  0.00000000000E+00 0.  1.
         21   -1    0    0  502  503 -0.00000000000E+00 -0.00000000000E+00 -0.49558771813E+03  0.49558771813E+03  0.00000000000E+00 0.  1.
          6    1    1    2  501    0 -0.10368361072E+03  0.87810104759E+02 -0.13268011978E+03  0.25689281776E+03  0.17300000000E+03 0.  1.
         -6    1    1    2    0  503  0.10368361072E+03 -0.87810104759E+02 -0.26058374218E+03  0.34101875655E+03  0.17300000000E+03 0.  1.
<mgrwt>
<rscale>  2 0.21997706E+03</rscale>
<asrwt>0</asrwt>
<pdfrwt beam="1">  1       21 0.15742132E-01 0.21997706E+03</pdfrwt>
<pdfrwt beam="2">  1       21 0.76244264E-01 0.21997706E+03</pdfrwt>
<totfact> 0.54338644E+04</totfact>
</mgrwt>
</event>
<event>
 4    1  0.4349106E+000  0.1842136E+03  0.7546771E-02  0.1163786E+00
         21   -1    0    0  501  502  0.00000000000E+00  0.00000000000E+00  0.11517588394E+04  0.11517588394E+04  0.00000000000E+00 0. -1.
         21   -1    0    0  502  503 -0.00000000000E+00 -0.00000000000E+00 -0.29582715459E+02  0.29582715459E+02  0.00000000000E+00 0.  1.
          6    1    1    2  501    0 -0.48383296304E+02 -0.40800862415E+02  0.52356506716E+03  0.55502705635E+03  0.17300000000E+03 0.  1.
         -6    1    1    2    0  503  0.48383296304E+02  0.40800862415E+02  0.59861105675E+03  0.62631449847E+03  0.17300000000E+03 0. -1.
<mgrwt>
<rscale>  2 0.18421361E+03</rscale>
<asrwt>0</asrwt>
<pdfrwt beam="1">  1       21 0.17719363E+00 0.18421361E+03</pdfrwt>
<pdfrwt beam="2">  1       21 0.45511879E-02 0.18421361E+03</pdfrwt>
<totfact> 0.60274435E+04</totfact>
</mgrwt>
</event>
<event>
 4    1  0.4349106E+000  0.5568087E+03  0.7546771E-02  0.9999302E-01
         21   -1    0    0  503  502  0.00000000000E+00  0.00000000000E+00  0.55746591963E+03  0.55746591963E+03  0.00000000000E+00 0.  1.
         21   -1    0    0  501  503 -0.00000000000E+00 -0.00000000000E+00 -0.67687865117E+03  0.67687865117E+03  0.00000000000E+00 0. -1.
          6    1    1    2  501    0 -0.50331234287E+03  0.16365688701E+03 -0.32035307450E+03  0.64238772053E+03  0.17300000000E+03 0. -1.
         -6    1    1    2    0  502  0.50331234287E+03 -0.16365688701E+03  0.20094034296E+03  0.59195685027E+03  0.17300000000E+03 0.  1.
<mgrwt>
<rscale>  2 0.55680867E+03</rscale>
<asrwt>0</asrwt>
<pdfrwt beam="1">  1       21 0.85763988E-01 0.55680867E+03</pdfrwt>
<pdfrwt beam="2">  1       21 0.10413518E+00 0.55680867E+03</pdfrwt>
<totfact> 0.70907723E+02</totfact>
</mgrwt>
</event>
<event>
 4    1  0.4349106E+000  0.2524867E+03  0.7546771E-02  0.1111743E+00
         21   -1    0    0  501  502  0.00000000000E+00  0.00000000000E+00  0.37940304988E+03  0.37940304988E+03  0.00000000000E+00 0. -1.
         21   -1    0    0  502  503 -0.00000000000E+00 -0.00000000000E+00 -0.16913063250E+03  0.16913063250E+03  0.00000000000E+00 0. -1.
          6    1    1    2  501    0  0.12409050467E+03 -0.13572795335E+03  0.12730260050E+03  0.28276400542E+03  0.17300000000E+03 0. -1.
         -6    1    1    2    0  503 -0.12409050467E+03  0.13572795335E+03  0.82969816885E+02  0.26576967695E+03  0.17300000000E+03 0. -1.
<mgrwt>
<rscale>  2 0.25248669E+03</rscale>
<asrwt>0</asrwt>
<pdfrwt beam="1">  1       21 0.58369700E-01 0.25248669E+03</pdfrwt>
<pdfrwt beam="2">  1       21 0.26020097E-01 0.25248669E+03</pdfrwt>
<totfact> 0.37486427E+04</totfact>
</mgrwt>
</event>
<event>
 4    1  0.4349106E+000  0.1971469E+03  0.7546771E-02  0.1152169E+00
         21   -1    0    0  501  502  0.00000000000E+00  0.00000000000E+00  0.96794322308E+03  0.96794322308E+03  0.00000000000E+00 0. -1.
         21   -1    0    0  502  503 -0.00000000000E+00 -0.00000000000E+00 -0.42817830879E+02  0.42817830879E+02  0.00000000000E+00 0. -1.
          6    1    1    2  501    0 -0.87446016810E+02  0.35931942257E+02  0.58861463977E+03  0.62075285298E+03  0.17300000000E+03 0. -1.
         -6    1    1    2    0  503  0.87446016810E+02 -0.35931942257E+02  0.33651075243E+03  0.39000820098E+03  0.17300000000E+03 0. -1.
<mgrwt>
<rscale>  2 0.19714693E+03</rscale>
<asrwt>0</asrwt>
<pdfrwt beam="1">  1       21 0.14891433E+00 0.19714693E+03</pdfrwt>
<pdfrwt beam="2">  1       21 0.65873593E-02 0.19714693E+03</pdfrwt>
<totfact> 0.51045702E+04</totfact>
</mgrwt>
</event>
<event>
 4    1  0.4349106E+000  0.2309088E+03  0.7546771E-02  0.1126002E+00
         21   -1    0    0  503  502  0.00000000000E+00  0.00000000000E+00  0.25578904668E+03  0.25578904668E+03  0.00000000000E+00 0.  1.
         21   -1    0    0  501  503 -0.00000000000E+00 -0.00000000000E+00 -0.40392811936E+03  0.40392811936E+03  0.00000000000E+00 0.  1.
          6    1    1    2  501    0 -0.15027914252E+03  0.28391343013E+02 -0.30353973315E+03  0.38138597068E+03  0.17300000000E+03 0.  1.
         -6    1    1    2    0  502  0.15027914252E+03 -0.28391343013E+02  0.15540066046E+03  0.27833119535E+03  0.17300000000E+03 0.  1.
<mgrwt>
<rscale>  2 0.23090883E+03</rscale>
<asrwt>0</asrwt>
<pdfrwt beam="1">  1       21 0.39352161E-01 0.23090883E+03</pdfrwt>
<pdfrwt beam="2">  1       21 0.62142787E-01 0.23090883E+03</pdfrwt>
<totfact> 0.14613645E+04</totfact>
</mgrwt>
</event>
<event>
 4    1  0.4349106E+000  0.1735182E+03  0.7546771E-02  0.1174228E+00
         21   -1    0    0  501  502  0.00000000000E+00  0.00000000000E+00  0.36541657080E+02  0.36541657080E+02  0.00000000000E+00 0.  1.
         21   -1    0    0  502  503 -0.00000000000E+00 -0.00000000000E+00 -0.10470827666E+04  0.10470827666E+04  0.00000000000E+00 0.  1.
          6    1    1    2  501    0  0.48406418195E+01  0.12495292060E+02 -0.25515643687E+03  0.30856664015E+03  0.17300000000E+03 0.  1.
         -6    1    1    2    0  503 -0.48406418195E+01 -0.12495292060E+02 -0.75538467260E+03  0.77505778348E+03  0.17300000000E+03 0.  1.
<mgrwt>
<rscale>  2 0.17351820E+03</rscale>
<asrwt>0</asrwt>
<pdfrwt beam="1">  1       21 0.56217950E-02 0.17351820E+03</pdfrwt>
<pdfrwt beam="2">  1       21 0.16108961E+00 0.17351820E+03</pdfrwt>
<totfact> 0.55065653E+04</totfact>
</mgrwt>
</event>
<event>
 4    1  0.4349106E+000  0.1827890E+03  0.7546771E-02  0.1165131E+00
         21   -1    0    0  501  502  0.00000000000E+00  0.00000000000E+00  0.14204381325E+02  0.14204381325E+02  0.00000000000E+00 0. -1.
         21   -1    0    0  502  503 -0.00000000000E+00 -0.00000000000E+00 -0.23859484756E+04  0.23859484756E+04  0.00000000000E+00 0. -1.
          6    1    1    2  501    0 -0.36726561165E+02 -0.46194804354E+02 -0.10431831618E+04  0.10590764417E+04  0.17300000000E+03 0.  1.
         -6    1    1    2    0  503  0.36726561165E+02  0.46194804354E+02 -0.13285609325E+04  0.13410764152E+04  0.17300000000E+03 0.  1.
<mgrwt>
<rscale>  2 0.18278895E+03</rscale>
<asrwt>0</asrwt>
<pdfrwt beam="1">  1       21 0.21852896E-02 0.18278895E+03</pdfrwt>
<pdfrwt beam="2">  1       21 0.36706898E+00 0.18278895E+03</pdfrwt>
<totfact> 0.14924094E+04</totfact>
</mgrwt>
</event>
<event>
 4    1  0.4349106E+000  0.1877764E+03  0.7546771E-02  0.1160482E+00
         21   -1    0    0  501  502  0.00000000000E+00  0.00000000000E+00  0.12775941387E+04  0.12775941387E+04  0.00000000000E+00 0. -1.
         21   -1    0    0  502  503 -0.00000000000E+00 -0.00000000000E+00 -0.30762965620E+02  0.30762965620E+02  0.00000000000E+00 0. -1.
          6    1    1    2  501    0 -0.45197642099E+02  0.57342412551E+02  0.83322087153E+03  0.85411767332E+03  0.17300000000E+03 0.  1.
         -6    1    1    2    0  503  0.45197642099E+02 -0.57342412551E+02  0.41361030160E+03  0.45423943104E+03  0.17300000000E+03 0.  1.
<mgrwt>
<rscale>  2 0.18777641E+03</rscale>
<asrwt>0</asrwt>
<pdfrwt beam="1">  1       21 0.19655290E+00 0.18777641E+03</pdfrwt>
<pdfrwt beam="2">  1       21 0.47327649E-02 0.18777641E+03</pdfrwt>
<totfact> 0.41854533E+04</totfact>
</mgrwt>
</event>
<event>
 4    1  0.4349106E+000  0.2417329E+03  0.7546771E-02  0.1118644E+00
         21   -1    0    0  503  502  0.00000000000E+00  0.00000000000E+00  0.26753454591E+03  0.26753454591E+03  0.00000000000E+00 0. -1.
         21   -1    0    0  501  503 -0.00000000000E+00 -0.00000000000E+00 -0.24006569421E+03  0.24006569421E+03  0.00000000000E+00 0.  1.
          6    1    1    2  501    0 -0.40566995575E+02 -0.16389059650E+03 -0.62476245020E+02  0.24967596989E+03  0.17300000000E+03 0.  1.
         -6    1    1    2    0  502  0.40566995575E+02  0.16389059650E+03  0.89945096719E+02  0.25792427023E+03  0.17300000000E+03 0.  1.
<mgrwt>
<rscale>  2 0.24173293E+03</rscale>
<asrwt>0</asrwt>
<pdfrwt beam="1">  1       21 0.41159161E-01 0.24173293E+03</pdfrwt>
<pdfrwt beam="2">  1       21 0.36933183E-01 0.24173293E+03</pdfrwt>
<totfact> 0.39262181E+04</totfact>
</mgrwt>
</event>
<event>
 4    1  0.4349106E+000  0.2424694E+03  0.7546771E-02  0.1118159E+00
         21   -1    0    0  503  502  0.00000000000E+00  0.00000000000E+00  0.54076202945E+03  0.54076202945E+03  0.00000000000E+00 0.  1.
         21   -1    0    0  501  503 -0.00000000000E+00 -0.00000000000E+00 -0.39465061707E+03  0.39465061707E+03  0.00000000000E+00 0.  1.
          6    1    1    2  501    0  0.12624820809E+03  0.11368297750E+03 -0.32504915976E+03  0.40552236150E+03  0.17300000000E+03 0.  1.
         -6    1    1    2    0  502 -0.12624820809E+03 -0.11368297750E+03  0.47116057213E+03  0.52989028502E+03  0.17300000000E+03 0.  1.
<mgrwt>
<rscale>  2 0.24246944E+03</rscale>
<asrwt>0</asrwt>
<pdfrwt beam="1">  1       21 0.83194158E-01 0.24246944E+03</pdfrwt>
<pdfrwt beam="2">  1       21 0.60715480E-01 0.24246944E+03</pdfrwt>
<totfact> 0.30585492E+03</totfact>
</mgrwt>
</event>
<event>
 4    1  0.4349106E+000  0.2038045E+03  0.7546771E-02  0.1146568E+00
         21   -1    0    0  501  502  0.00000000000E+00  0.00000000000E+00  0.20998722960E+04  0.20998722960E+04  0.00000000000E+00 0.  1.
         21   -1    0    0  502  503 -0.00000000000E+00 -0.00000000000E+00 -0.26591022360E+02  0.26591022360E+02  0.00000000000E+00 0.  1.
          6    1    1    2  501    0  0.79969886556E+02  0.72194773979E+02  0.15747300876E+04  0.15878636960E+04  0.17300000000E+03 0.  1.
         -6    1    1    2    0  503 -0.79969886556E+02 -0.72194773979E+02  0.49855118596E+03  0.53859962233E+03  0.17300000000E+03 0.  1.
<mgrwt>
<rscale>  2 0.20380449E+03</rscale>
<asrwt>0</asrwt>
<pdfrwt beam="1">  1       21 0.32305715E+00 0.20380449E+03</pdfrwt>
<pdfrwt beam="2">  1       21 0.40909282E-02 0.20380449E+03</pdfrwt>
<totfact> 0.93651129E+03</totfact>
</mgrwt>
</event>
<event>
 4    1  0.4349106E+000  0.2386548E+03  0.7546771E-02  0.1120692E+00
         21   -1    0    0  501  502  0.00000000000E+00  0.00000000000E+00  0.34830197351E+02  0.34830197351E+02  0.00000000000E+00 0.  1.
         21   -1    0    0  502  503 -0.00000000000E+00 -0.00000000000E+00 -0.19104791985E+04  0.19104791985E+04  0.00000000000E+00 0. -1.
          6    1    1    2  501    0 -0.16352948603E+03 -0.16888107170E+02 -0.56864777387E+03  0.61669797445E+03  0.17300000000E+03 0.  1.
         -6    1    1    2    0  503  0.16352948603E+03  0.16888107170E+02 -0.13070012272E+04  0.13286114214E+04  0.17300000000E+03 0. -1.
<mgrwt>
<rscale>  2 0.23865477E+03</rscale>
<asrwt>0</asrwt>
<pdfrwt beam="1">  1       21 0.53584896E-02 0.23865477E+03</pdfrwt>
<pdfrwt beam="2">  1       21 0.29392000E+00 0.23865477E+03</pdfrwt>
<totfact> 0.84559193E+03</totfact>
</mgrwt>
</event>
<event>
 4    1  0.4349106E+000  0.1802623E+03  0.7546771E-02  0.1167549E+00
         21   -1    0    0  503  502  0.00000000000E+00  0.00000000000E+00  0.48775095954E+03  0.48775095954E+03  0.00000000000E+00 0.  1.
         21   -1    0    0  501  503 -0.00000000000E+00 -0.00000000000E+00 -0.14984888670E+03  0.14984888670E+03  0.00000000000E+00 0. -1.
          6    1    1    2  501    0  0.50549735177E+02 -0.31962533087E+01 -0.68637615629E+02  0.19288756839E+03  0.17300000000E+03 0. -1.
         -6    1    1    2    0  502 -0.50549735177E+02  0.31962533087E+01  0.40653968847E+03  0.44471227784E+03  0.17300000000E+03 0.  1.
<mgrwt>
<rscale>  2 0.18026229E+03</rscale>
<asrwt>0</asrwt>
<pdfrwt beam="1">  1       21 0.75038608E-01 0.18026229E+03</pdfrwt>
<pdfrwt beam="2">  1       21 0.23053675E-01 0.18026229E+03</pdfrwt>
<totfact> 0.28256332E+04</totfact>
</mgrwt>
</event>
<event>
 4    1  0.4349106E+000  0.2458604E+03  0.7546771E-02  0.1115949E+00
         21   -1    0    0  501  502  0.00000000000E+00  0.00000000000E+00  0.47768565038E+03  0.47768565038E+03  0.00000000000E+00 0.  1.
         21   -1    0    0  502  503 -0.00000000000E+00 -0.00000000000E+00 -0.14898725527E+03  0.14898725527E+03  0.00000000000E+00 0.  1.
          6    1    1    2  501    0  0.16840553424E+03 -0.46453133744E+02  0.28596730247E+03  0.37712678992E+03  0.17300000000E+03 0.  1.
         -6    1    1    2    0  503 -0.16840553424E+03  0.46453133744E+02  0.42731092632E+02  0.24954611573E+03  0.17300000000E+03 0.  1.
<mgrwt>
<rscale>  2 0.24586036E+03</rscale>
<asrwt>0</asrwt>
<pdfrwt beam="1">  1       21 0.73490100E-01 0.24586036E+03</pdfrwt>
<pdfrwt beam="2">  1       21 0.22921116E-01 0.24586036E+03</pdfrwt>
<totfact> 0.28916219E+04</totfact>
</mgrwt>
</event>
<event>
 4    1  0.4349106E+000  0.2451458E+03  0.7546771E-02  0.1116412E+00
         21   -1    0    0  501  502  0.00000000000E+00  0.00000000000E+00  0.17694098584E+04  0.17694098584E+04  0.00000000000E+00 0.  1.
         21   -1    0    0  502  503 -0.00000000000E+00 -0.00000000000E+00 -0.34721158607E+02  0.34721158607E+02  0.00000000000E+00 0.  1.
          6    1    1    2  501    0 -0.49372297558E+02  0.16652277132E+03  0.10005426337E+04  0.10301368933E+04  0.17300000000E+03 0.  1.
         -6    1    1    2    0  503  0.49372297558E+02 -0.16652277132E+03  0.73414606605E+03  0.77399412364E+03  0.17300000000E+03 0.  1.
<mgrwt>
<rscale>  2 0.24514579E+03</rscale>
<asrwt>0</asrwt>
<pdfrwt beam="1">  1       21 0.27221683E+00 0.24514579E+03</pdfrwt>
<pdfrwt beam="2">  1       21 0.53417181E-02 0.24514579E+03</pdfrwt>
<totfact> 0.11321611E+04</totfact>
</mgrwt>
</event>
<event>
 4    1  0.4349106E+000  0.2058505E+03  0.7546771E-02  0.1144895E+00
         21   -1    0    0  501  502  0.00000000000E+00  0.00000000000E+00  0.91924951861E+03  0.91924951861E+03  0.00000000000E+00 0. -1.
         21   -1    0    0  502  503 -0.00000000000E+00 -0.00000000000E+00 -0.51886602701E+02  0.51886602701E+02  0.00000000000E+00 0. -1.
          6    1    1    2  501    0 -0.92310540983E+02  0.62643336426E+02  0.27147956734E+03  0.34069866313E+03  0.17300000000E+03 0. -1.
         -6    1    1    2    0  503  0.92310540983E+02 -0.62643336426E+02  0.59588334857E+03  0.63043745818E+03  0.17300000000E+03 0. -1.
<mgrwt>
<rscale>  2 0.20585049E+03</rscale>
<asrwt>0</asrwt>
<pdfrwt beam="1">  1       21 0.14142299E+00 0.20585049E+03</pdfrwt>
<pdfrwt beam="2">  1       21 0.79825549E-02 0.20585049E+03</pdfrwt>
<totfact> 0.41672790E+04</totfact>
</mgrwt>
</event>
<event>
 4    1  0.4349106E+000  0.2304357E+03  0.7546771E-02  0.1126333E+00
         21   -1    0    0  501  502  0.00000000000E+00  0.00000000000E+00  0.13361143116E+03  0.13361143116E+03  0.00000000000E+00 0.  1.
         21   -1    0    0  502  503 -0.00000000000E+00 -0.00000000000E+00 -0.11260475408E+04  0.11260475408E+04  0.00000000000E+00 0. -1.
          6    1    1    2  501    0  0.15119608424E+03  0.17645468647E+02  0.10417557451E+02  0.23067107308E+03  0.17300000000E+03 0.  1.
         -6    1    1    2    0  503 -0.15119608424E+03 -0.17645468647E+02 -0.10028536671E+04  0.10289878989E+04  0.17300000000E+03 0. -1.
<mgrwt>
<rscale>  2 0.23043571E+03</rscale>
<asrwt>0</asrwt>
<pdfrwt beam="1">  1       21 0.20555606E-01 0.23043571E+03</pdfrwt>
<pdfrwt beam="2">  1       21 0.17323808E+00 0.23043571E+03</pdfrwt>
<totfact> 0.43027691E+03</totfact>
</mgrwt>
</event>
<event>
 4    1  0.4349106E+000  0.2505459E+03  0.7546771E-02  0.1112960E+00
         21   -1    0    0  501  502  0.00000000000E+00  0.00000000000E+00  0.19423899831E+03  0.19423899831E+03  0.00000000000E+00 0.  1.
         21   -1    0    0  502  503 -0.00000000000E+00 -0.00000000000E+00 -0.48499481765E+03  0.48499481765E+03  0.00000000000E+00 0. -1.
          6    1    1    2  501    0  0.16900621382E+03 -0.65430522905E+02  0.50793700536E+02  0.25564282437E+03  0.17300000000E+03 0.  1.
         -6    1    1    2    0  503 -0.16900621382E+03  0.65430522905E+02 -0.34154951987E+03  0.42359099160E+03  0.17300000000E+03 0. -1.
<mgrwt>
<rscale>  2 0.25054591E+03</rscale>
<asrwt>0</asrwt>
<pdfrwt beam="1">  1       21 0.29882923E-01 0.25054591E+03</pdfrwt>
<pdfrwt beam="2">  1       21 0.74614586E-01 0.25054591E+03</pdfrwt>
<totfact> 0.16709749E+04</totfact>
</mgrwt>
</event>
<event>
 4    1  0.4349106E+000  0.1784091E+03  0.7546771E-02  0.1169352E+00
         21   -1    0    0  503  502  0.00000000000E+00  0.00000000000E+00  0.51722142013E+03  0.51722142013E+03  0.00000000000E+00 0.  1.
         21   -1    0    0  501  503 -0.00000000000E+00 -0.00000000000E+00 -0.70191942639E+02  0.70191942639E+02  0.00000000000E+00 0.  1.
          6    1    1    2  501    0 -0.38759522737E+02 -0.19962674892E+02  0.12039854469E+03  0.21523386944E+03  0.17300000000E+03 0.  1.
         -6    1    1    2    0  502  0.38759522737E+02  0.19962674892E+02  0.32663093280E+03  0.37217949333E+03  0.17300000000E+03 0.  1.
<mgrwt>
<rscale>  2 0.17840911E+03</rscale>
<asrwt>0</asrwt>
<pdfrwt beam="1">  1       21 0.79572524E-01 0.17840911E+03</pdfrwt>
<pdfrwt beam="2">  1       21 0.10798761E-01 0.17840911E+03</pdfrwt>
<totfact> 0.99145283E+04</totfact>
</mgrwt>
</event>
<event>
 4    1  0.4349106E+000  0.1760731E+03  0.7546771E-02  0.1171659E+00
         21   -1    0    0  503  502  0.00000000000E+00  0.00000000000E+00  0.26810577185E+02  0.26810577185E+02  0.00000000000E+00 0. -1.
         21   -1    0    0  501  503 -0.00000000000E+00 -0.00000000000E+00 -0.13233554557E+04  0.13233554557E+04  0.00000000000E+00 0. -1.
          6    1    1    2  501    0 -0.18621382866E+02 -0.26943790973E+02 -0.88811020966E+03  0.90539575230E+03  0.17300000000E+03 0. -1.
         -6    1    1    2    0  502  0.18621382866E+02  0.26943790973E+02 -0.40843466883E+03  0.44477028056E+03  0.17300000000E+03 0. -1.
<mgrwt>
<rscale>  2 0.17607306E+03</rscale>
<asrwt>0</asrwt>
<pdfrwt beam="1">  1       21 0.41247050E-02 0.17607306E+03</pdfrwt>
<pdfrwt beam="2">  1       21 0.20359311E+00 0.17607306E+03</pdfrwt>
<totfact> 0.47935838E+04</totfact>
</mgrwt>
</event>
<event>
 4    1  0.4349106E+000  0.2256134E+03  0.7546771E-02  0.1129766E+00
         21   -1    0    0  503  502  0.00000000000E+00  0.00000000000E+00  0.65705943267E+03  0.65705943267E+03  0.00000000000E+00 0.  1.
         21   -1    0    0  501  503 -0.00000000000E+00 -0.00000000000E+00 -0.10043770539E+03  0.10043770539E+03  0.00000000000E+00 0. -1.
          6    1    1    2  501    0 -0.21917860887E+02 -0.14315037779E+03  0.97187120530E+02  0.24565577478E+03  0.17300000000E+03 0. -1.
         -6    1    1    2    0  502  0.21917860887E+02  0.14315037779E+03  0.45943460674E+03  0.51184136328E+03  0.17300000000E+03 0.  1.
<mgrwt>
<rscale>  2 0.22561344E+03</rscale>
<asrwt>0</asrwt>
<pdfrwt beam="1">  1       21 0.10108606E+00 0.22561344E+03</pdfrwt>
<pdfrwt beam="2">  1       21 0.15451955E-01 0.22561344E+03</pdfrwt>
<totfact> 0.29196391E+04</totfact>
</mgrwt>
</event>
<event>
 4    1  0.4349106E+000  0.2594624E+03  0.7546771E-02  0.1107467E+00
         21   -1    0    0  501  502  0.00000000000E+00  0.00000000000E+00  0.43377212428E+03  0.43377212428E+03  0.00000000000E+00 0. -1.
         21   -1    0    0  502  503 -0.00000000000E+00 -0.00000000000E+00 -0.18499964468E+03  0.18499964468E+03  0.00000000000E+00 0. -1.
          6    1    1    2  501    0 -0.50858332169E+02 -0.18656140345E+03  0.24856075097E+03  0.35930930148E+03  0.17300000000E+03 0. -1.
         -6    1    1    2    0  503  0.50858332169E+02  0.18656140345E+03  0.21172863017E+00  0.25946246749E+03  0.17300000000E+03 0. -1.
<mgrwt>
<rscale>  2 0.25946238E+03</rscale>
<asrwt>0</asrwt>
<pdfrwt beam="1">  1       21 0.66734173E-01 0.25946238E+03</pdfrwt>
<pdfrwt beam="2">  1       21 0.28461484E-01 0.25946238E+03</pdfrwt>
<totfact> 0.23461341E+04</totfact>
</mgrwt>
</event>
<event>
 4    1  0.4349106E+000  0.1751386E+03  0.7546771E-02  0.1172593E+00
         21   -1    0    0  503  502  0.00000000000E+00  0.00000000000E+00  0.96618760022E+02  0.96618760022E+02  0.00000000000E+00 0. -1.
         21   -1    0    0  501  503 -0.00000000000E+00 -0.00000000000E+00 -0.42952111261E+03  0.42952111261E+03  0.00000000000E+00 0. -1.
          6    1    1    2  501    0 -0.39419097441E+01 -0.26999674822E+02 -0.30081667966E+03  0.34808647755E+03  0.17300000000E+03 0.  1.
         -6    1    1    2    0  502  0.39419097441E+01  0.26999674822E+02 -0.32085672930E+02  0.17805339508E+03  0.17300000000E+03 0.  1.
<mgrwt>
<rscale>  2 0.17513858E+03</rscale>
<asrwt>0</asrwt>
<pdfrwt beam="1">  1       21 0.14864425E-01 0.17513858E+03</pdfrwt>
<pdfrwt beam="2">  1       21 0.66080171E-01 0.17513858E+03</pdfrwt>
<totfact> 0.84462547E+04</totfact>
</mgrwt>
</event>
<event>
 4    1  0.4349106E+000  0.1886992E+03  0.7546771E-02  0.1159640E+00
         21   -1    0    0  501  502  0.00000000000E+00  0.00000000000E+00  0.14495393458E+03  0.14495393458E+03  0.00000000000E+00 0. -1.
         21   -1    0    0  502  503 -0.00000000000E+00 -0.00000000000E+00 -0.35916585043E+03  0.35916585043E+03  0.00000000000E+00 0. -1.
          6    1    1    2  501    0  0.73966047660E+02 -0.14401481314E+02  0.34601206518E+02  0.19184530842E+03  0.17300000000E+03 0. -1.
         -6    1    1    2    0  503 -0.73966047660E+02  0.14401481314E+02 -0.24881312236E+03  0.31227447659E+03  0.17300000000E+03 0. -1.
<mgrwt>
<rscale>  2 0.18869918E+03</rscale>
<asrwt>0</asrwt>
<pdfrwt beam="1">  1       21 0.22300606E-01 0.18869918E+03</pdfrwt>
<pdfrwt beam="2">  1       21 0.55256284E-01 0.18869918E+03</pdfrwt>
<totfact> 0.58217902E+04</totfact>
</mgrwt>
</event>
<event>
 4    1  0.4349106E+000  0.2110545E+03  0.7546771E-02  0.1140734E+00
         21   -1    0    0  503  502  0.00000000000E+00  0.00000000000E+00  0.46643776141E+03  0.46643776141E+03  0.00000000000E+00 0. -1.
         21   -1    0    0  501  503 -0.00000000000E+00 -0.00000000000E+00 -0.10925922325E+03  0.10925922325E+03  0.00000000000E+00 0.  1.
          6    1    1    2  501    0 -0.16337315499E+02  0.11978357970E+03  0.76434494078E+02  0.22446880792E+03  0.17300000000E+03 0.  1.
         -6    1    1    2    0  502  0.16337315499E+02 -0.11978357970E+03  0.28074404409E+03  0.35122817674E+03  0.17300000000E+03 0. -1.
<mgrwt>
<rscale>  2 0.21105453E+03</rscale>
<asrwt>0</asrwt>
<pdfrwt beam="1">  1       21 0.71759654E-01 0.21105453E+03</pdfrwt>
<pdfrwt beam="2">  1       21 0.16809112E-01 0.21105453E+03</pdfrwt>
<totfact> 0.55378186E+04</totfact>
</mgrwt>
</event>
<event>
 4    1  0.4349106E+000  0.2742360E+03  0.7546771E-02  0.1098879E+00
         21   -1    0    0  501  502  0.00000000000E+00  0.00000000000E+00  0.33459902462E+03  0.33459902462E+03  0.00000000000E+00 0.  1.
         21   -1    0    0  502  503 -0.00000000000E+00 -0.00000000000E+00 -0.22714498317E+03  0.22714498317E+03  0.00000000000E+00 0.  1.
          6    1    1    2  501    0 -0.29050426070E+02  0.21079005012E+03  0.24962597539E+02  0.27536975825E+03  0.17300000000E+03 0.  1.
         -6    1    1    2    0  503  0.29050426070E+02 -0.21079005012E+03  0.82491443914E+02  0.28637424954E+03  0.17300000000E+03 0.  1.
<mgrwt>
<rscale>  2 0.27423598E+03</rscale>
<asrwt>0</asrwt>
<pdfrwt beam="1">  1       21 0.51476773E-01 0.27423598E+03</pdfrwt>
<pdfrwt beam="2">  1       21 0.34945382E-01 0.27423598E+03</pdfrwt>
<totfact> 0.27202507E+04</totfact>
</mgrwt>
</event>
<event>
 4    1  0.4349106E+000  0.3441900E+03  0.7546771E-02  0.1065025E+00
         21   -1    0    0  503  502  0.00000000000E+00  0.00000000000E+00  0.60217835616E+03  0.60217835616E+03  0.00000000000E+00 0. -1.
         21   -1    0    0  501  503 -0.00000000000E+00 -0.00000000000E+00 -0.38828913844E+03  0.38828913844E+03  0.00000000000E+00 0.  1.
          6    1    1    2  501    0  0.28827941579E+03  0.73707318271E+02 -0.24089865054E+03  0.42011778130E+03  0.17300000000E+03 0.  1.
         -6    1    1    2    0  502 -0.28827941579E+03 -0.73707318271E+02  0.45478786826E+03  0.57034971330E+03  0.17300000000E+03 0. -1.
<mgrwt>
<rscale>  2 0.34419005E+03</rscale>
<asrwt>0</asrwt>
<pdfrwt beam="1">  1       21 0.92642824E-01 0.34419005E+03</pdfrwt>
<pdfrwt beam="2">  1       21 0.59736791E-01 0.34419005E+03</pdfrwt>
<totfact> 0.23246142E+03</totfact>
</mgrwt>
</event>
<event>
 4    1  0.4349106E+000  0.1929415E+03  0.7546771E-02  0.1155835E+00
         21   -1    0    0  503  502  0.00000000000E+00  0.00000000000E+00  0.95969640393E+02  0.95969640393E+02  0.00000000000E+00 0.  1.
         21   -1    0    0  501  503 -0.00000000000E+00 -0.00000000000E+00 -0.48416073747E+03  0.48416073747E+03  0.00000000000E+00 0. -1.
          6    1    1    2  501    0  0.29756458281E+02  0.80074815873E+02 -0.32343473781E+03  0.37661180620E+03  0.17300000000E+03 0. -1.
         -6    1    1    2    0  502 -0.29756458281E+02 -0.80074815873E+02 -0.64756359267E+02  0.20351857166E+03  0.17300000000E+03 0.  1.
<mgrwt>
<rscale>  2 0.19294150E+03</rscale>
<asrwt>0</asrwt>
<pdfrwt beam="1">  1       21 0.14764560E-01 0.19294150E+03</pdfrwt>
<pdfrwt beam="2">  1       21 0.74486267E-01 0.19294150E+03</pdfrwt>
<totfact> 0.65179624E+04</totfact>
</mgrwt>
</event>
<event>
 4    1  0.4349106E+000  0.2045009E+03  0.7546771E-02  0.1145996E+00
         21   -1    0    0  501  502  0.00000000000E+00  0.00000000000E+00  0.20628963372E+03  0.20628963372E+03  0.00000000000E+00 0.  1.
         21   -1    0    0  502  503 -0.00000000000E+00 -0.00000000000E+00 -0.22248547234E+03  0.22248547234E+03  0.00000000000E+00 0.  1.
          6    1    1    2  501    0  0.67131150765E+02  0.85936234579E+02  0.55789812384E+02  0.21197436397E+03  0.17300000000E+03 0.  1.
         -6    1    1    2    0  503 -0.67131150765E+02 -0.85936234579E+02 -0.71985651008E+02  0.21680074208E+03  0.17300000000E+03 0.  1.
<mgrwt>
<rscale>  2 0.20450092E+03</rscale>
<asrwt>0</asrwt>
<pdfrwt beam="1">  1       21 0.31736867E-01 0.20450092E+03</pdfrwt>
<pdfrwt beam="2">  1       21 0.34228534E-01 0.20450092E+03</pdfrwt>
<totfact> 0.78111144E+04</totfact>
</mgrwt>
</event>
<event>
 4    1  0.4349106E+000  0.1748183E+03  0.7546771E-02  0.1172914E+00
         21   -1    0    0  501  502  0.00000000000E+00  0.00000000000E+00  0.88379883406E+03  0.88379883406E+03  0.00000000000E+00 0. -1.
         21   -1    0    0  502  503 -0.00000000000E+00 -0.00000000000E+00 -0.16577574953E+03  0.16577574953E+03  0.00000000000E+00 0. -1.
          6    1    1    2  501    0 -0.23079525831E+02  0.99878980812E+01  0.82586795731E+03  0.84416781835E+03  0.17300000000E+03 0. -1.
         -6    1    1    2    0  503  0.23079525831E+02 -0.99878980812E+01 -0.10784487279E+03  0.20540676524E+03  0.17300000000E+03 0. -1.
<mgrwt>
<rscale>  2 0.17481826E+03</rscale>
<asrwt>0</asrwt>
<pdfrwt beam="1">  1       21 0.13596905E+00 0.17481826E+03</pdfrwt>
<pdfrwt beam="2">  1       21 0.25503962E-01 0.17481826E+03</pdfrwt>
<totfact> 0.57083039E+03</totfact>
</mgrwt>
</event>
<event>
 4    1  0.4349106E+000  0.2080954E+03  0.7546771E-02  0.1143083E+00
         21   -1    0    0  501  502  0.00000000000E+00  0.00000000000E+00  0.63075795776E+03  0.63075795776E+03  0.00000000000E+00 0.  1.
         21   -1    0    0  502  503 -0.00000000000E+00 -0.00000000000E+00 -0.23014009792E+03  0.23014009792E+03  0.00000000000E+00 0.  1.
          6    1    1    2  501    0 -0.10979216441E+03  0.36337263266E+02  0.56088249282E+03  0.59824149540E+03  0.17300000000E+03 0.  1.
         -6    1    1    2    0  503  0.10979216441E+03 -0.36337263266E+02 -0.16026463299E+03  0.26265656027E+03  0.17300000000E+03 0.  1.
<mgrwt>
<rscale>  2 0.20809545E+03</rscale>
<asrwt>0</asrwt>
<pdfrwt beam="1">  1       21 0.97039685E-01 0.20809545E+03</pdfrwt>
<pdfrwt beam="2">  1       21 0.35406169E-01 0.20809545E+03</pdfrwt>
<totfact> 0.67006056E+03</totfact>
</mgrwt>
</event>
<event>
 4    1  0.4349106E+000  0.1956680E+03  0.7546771E-02  0.1153446E+00
         21   -1    0    0  501  502  0.00000000000E+00  0.00000000000E+00  0.59871495476E+03  0.59871495476E+03  0.00000000000E+00 0.  1.
         21   -1    0    0  502  503 -0.00000000000E+00 -0.00000000000E+00 -0.15483350132E+03  0.15483350132E+03  0.00000000000E+00 0. -1.
          6    1    1    2  501    0  0.80699119072E+02 -0.42948883306E+02  0.51060876221E+03  0.54681556529E+03  0.17300000000E+03 0.  1.
         -6    1    1    2    0  503 -0.80699119072E+02  0.42948883306E+02 -0.66727308771E+02  0.20673289078E+03  0.17300000000E+03 0. -1.
<mgrwt>
<rscale>  2 0.19566797E+03</rscale>
<asrwt>0</asrwt>
<pdfrwt beam="1">  1       21 0.92109992E-01 0.19566797E+03</pdfrwt>
<pdfrwt beam="2">  1       21 0.23820539E-01 0.19566797E+03</pdfrwt>
<totfact> 0.16502275E+04</totfact>
</mgrwt>
</event>
<event>
 4    1  0.4349106E+000  0.2001156E+03  0.7546771E-02  0.1149642E+00
         21   -1    0    0  501  502  0.00000000000E+00  0.00000000000E+00  0.97700912195E+03  0.97700912195E+03  0.00000000000E+00 0. -1.
         21   -1    0    0  502  503 -0.00000000000E+00 -0.00000000000E+00 -0.64891927098E+02  0.64891927098E+02  0.00000000000E+00 0. -1.
          6    1    1    2  501    0  0.99202613465E+02  0.16616150193E+02  0.77223550368E+03  0.79774302135E+03  0.17300000000E+03 0. -1.
         -6    1    1    2    0  503 -0.99202613465E+02 -0.16616150193E+02  0.13988169117E+03  0.24415802770E+03  0.17300000000E+03 0. -1.
<mgrwt>
<rscale>  2 0.20011560E+03</rscale>
<asrwt>0</asrwt>
<pdfrwt beam="1">  1       21 0.15030909E+00 0.20011560E+03</pdfrwt>
<pdfrwt beam="2">  1       21 0.99833741E-02 0.20011560E+03</pdfrwt>
<totfact> 0.24076389E+04</totfact>
</mgrwt>
</event>
<event>
 4    1  0.4349106E+000  0.1804049E+03  0.7546771E-02  0.1167412E+00
         21   -1    0    0  501  502  0.00000000000E+00  0.00000000000E+00  0.44656072973E+03  0.44656072973E+03  0.00000000000E+00 0. -1.
         21   -1    0    0  502  503 -0.00000000000E+00 -0.00000000000E+00 -0.11101130032E+03  0.11101130032E+03  0.00000000000E+00 0. -1.
          6    1    1    2  501    0 -0.45716424259E+02 -0.22954817119E+02  0.33116300921E+03  0.37711384719E+03  0.17300000000E+03 0. -1.
         -6    1    1    2    0  503  0.45716424259E+02  0.22954817119E+02  0.43864202012E+01  0.18045818285E+03  0.17300000000E+03 0. -1.
<mgrwt>
<rscale>  2 0.18040486E+03</rscale>
<asrwt>0</asrwt>
<pdfrwt beam="1">  1       21 0.68701650E-01 0.18040486E+03</pdfrwt>
<pdfrwt beam="2">  1       21 0.17078662E-01 0.18040486E+03</pdfrwt>
<totfact> 0.60060309E+04</totfact>
</mgrwt>
</event>
<event>
 4    1  0.4349106E+000  0.2366921E+03  0.7546771E-02  0.1122016E+00
         21   -1    0    0  501  502  0.00000000000E+00  0.00000000000E+00  0.95443697461E+03  0.95443697461E+03  0.00000000000E+00 0. -1.
         21   -1    0    0  502  503 -0.00000000000E+00 -0.00000000000E+00 -0.62142078274E+02  0.62142078274E+02  0.00000000000E+00 0. -1.
          6    1    1    2  501    0  0.15285311727E+03  0.52250212770E+02  0.56581598209E+03  0.61332771483E+03  0.17300000000E+03 0. -1.
         -6    1    1    2    0  503 -0.15285311727E+03 -0.52250212770E+02  0.32647891425E+03  0.40325133805E+03  0.17300000000E+03 0. -1.
<mgrwt>
<rscale>  2 0.23669212E+03</rscale>
<asrwt>0</asrwt>
<pdfrwt beam="1">  1       21 0.14683645E+00 0.23669212E+03</pdfrwt>
<pdfrwt beam="2">  1       21 0.95603204E-02 0.23669212E+03</pdfrwt>
<totfact> 0.27049940E+04</totfact>
</mgrwt>
</event>
<event>
 4    1  0.4349106E+000  0.1848979E+03  0.7546771E-02  0.1163145E+00
         21   -1    0    0  501  502  0.00000000000E+00  0.00000000000E+00  0.24903349744E+03  0.24903349744E+03  0.00000000000E+00 0. -1.
         21   -1    0    0  502  503 -0.00000000000E+00 -0.00000000000E+00 -0.14630543224E+03  0.14630543224E+03  0.00000000000E+00 0. -1.
          6    1    1    2  501    0  0.63654629519E+02 -0.14364171316E+02  0.10046056605E+03  0.21042710521E+03  0.17300000000E+03 0. -1.
         -6    1    1    2    0  503 -0.63654629519E+02  0.14364171316E+02  0.22674991507E+01  0.18491182447E+03  0.17300000000E+03 0. -1.
<mgrwt>
<rscale>  2 0.18489792E+03</rscale>
<asrwt>0</asrwt>
<pdfrwt beam="1">  1       21 0.38312846E-01 0.18489792E+03</pdfrwt>
<pdfrwt beam="2">  1       21 0.22508528E-01 0.18489792E+03</pdfrwt>
<totfact> 0.12179045E+05</totfact>
</mgrwt>
</event>
<event>
 4    1  0.4349106E+000  0.1843045E+03  0.7546771E-02  0.1163701E+00
         21   -1    0    0  503  502  0.00000000000E+00  0.00000000000E+00  0.14719686379E+04  0.14719686379E+04  0.00000000000E+00 0. -1.
         21   -1    0    0  501  503 -0.00000000000E+00 -0.00000000000E+00 -0.25064580033E+02  0.25064580033E+02  0.00000000000E+00 0. -1.
          6    1    1    2  501    0  0.47410699289E+02 -0.42324793723E+02  0.51265353409E+03  0.54477684292E+03  0.17300000000E+03 0. -1.
         -6    1    1    2    0  502 -0.47410699289E+02  0.42324793723E+02  0.93425052380E+03  0.95225637503E+03  0.17300000000E+03 0. -1.
<mgrwt>
<rscale>  2 0.18430454E+03</rscale>
<asrwt>0</asrwt>
<pdfrwt beam="1">  1       21 0.22645665E+00 0.18430454E+03</pdfrwt>
<pdfrwt beam="2">  1       21 0.38560904E-02 0.18430454E+03</pdfrwt>
<totfact> 0.38521440E+04</totfact>
</mgrwt>
</event>
<event>
 4    1  0.4349106E+000  0.1921497E+03  0.7546771E-02  0.1156537E+00
         21   -1    0    0  501  502  0.00000000000E+00  0.00000000000E+00  0.77764524684E+02  0.77764524684E+02  0.00000000000E+00 0. -1.
         21   -1    0    0  502  503 -0.00000000000E+00 -0.00000000000E+00 -0.11053707531E+04  0.11053707531E+04  0.00000000000E+00 0. -1.
          6    1    1    2  501    0 -0.33411067252E+02 -0.76656511192E+02 -0.66993920124E+02  0.20349374795E+03  0.17300000000E+03 0. -1.
         -6    1    1    2    0  503  0.33411067252E+02  0.76656511192E+02 -0.96061230829E+03  0.97964152982E+03  0.17300000000E+03 0. -1.
<mgrwt>
<rscale>  2 0.19214973E+03</rscale>
<asrwt>0</asrwt>
<pdfrwt beam="1">  1       21 0.11963772E-01 0.19214973E+03</pdfrwt>
<pdfrwt beam="2">  1       21 0.17005705E+00 0.19214973E+03</pdfrwt>
<totfact> 0.12583109E+04</totfact>
</mgrwt>
</event>
<event>
 4    1  0.4349106E+000  0.7456976E+03  0.7546771E-02  0.9642124E-01
         21   -1    0    0  503  502  0.00000000000E+00  0.00000000000E+00  0.23104572161E+04  0.23104572161E+04  0.00000000000E+00 0.  1.
         21   -1    0    0  501  503 -0.00000000000E+00 -0.00000000000E+00 -0.58505230886E+03  0.58505230886E+03  0.00000000000E+00 0.  1.
          6    1    1    2  501    0  0.47068705572E+02  0.72382347175E+03 -0.24804703180E+03  0.78587035272E+03  0.17300000000E+03 0.  1.
         -6    1    1    2    0  502 -0.47068705572E+02 -0.72382347175E+03  0.19734519390E+04  0.21096391722E+04  0.17300000000E+03 0.  1.
<mgrwt>
<rscale>  2 0.74569758E+03</rscale>
<asrwt>0</asrwt>
<pdfrwt beam="1">  1       21 0.35545495E+00 0.74569758E+03</pdfrwt>
<pdfrwt beam="2">  1       21 0.90008049E-01 0.74569758E+03</pdfrwt>
<totfact> 0.10441096E+01</totfact>
</mgrwt>
</event>
<event>
 4    1  0.4349106E+000  0.2155891E+03  0.7546771E-02  0.1137215E+00
         21   -1    0    0  501  502  0.00000000000E+00  0.00000000000E+00  0.31412310761E+02  0.31412310761E+02  0.00000000000E+00 0. -1.
         21   -1    0    0  502  503 -0.00000000000E+00 -0.00000000000E+00 -0.15994026146E+04  0.15994026146E+04  0.00000000000E+00 0. -1.
          6    1    1    2  501    0  0.12497346106E+03  0.30516975705E+02 -0.56085824637E+03  0.60086656114E+03  0.17300000000E+03 0. -1.
         -6    1    1    2    0  503 -0.12497346106E+03 -0.30516975705E+02 -0.10071320574E+04  0.10299483642E+04  0.17300000000E+03 0. -1.
<mgrwt>
<rscale>  2 0.21558908E+03</rscale>
<asrwt>0</asrwt>
<pdfrwt beam="1">  1       21 0.48326626E-02 0.21558908E+03</pdfrwt>
<pdfrwt beam="2">  1       21 0.24606197E+00 0.21558908E+03</pdfrwt>
<totfact> 0.19607935E+04</totfact>
</mgrwt>
</event>
<event>
 4    1  0.4349106E+000  0.1767738E+03  0.7546771E-02  0.1170962E+00
         21   -1    0    0  503  502  0.00000000000E+00  0.00000000000E+00  0.82687491411E+03  0.82687491411E+03  0.00000000000E+00 0.  1.
         21   -1    0    0  501  503 -0.00000000000E+00 -0.00000000000E+00 -0.42420761220E+02  0.42420761220E+02  0.00000000000E+00 0.  1.
          6    1    1    2  501    0  0.28644052335E+02  0.22349115936E+02  0.24864598460E+03  0.30507997374E+03  0.17300000000E+03 0.  1.
         -6    1    1    2    0  502 -0.28644052335E+02 -0.22349115936E+02  0.53580816829E+03  0.56421570159E+03  0.17300000000E+03 0.  1.
<mgrwt>
<rscale>  2 0.17677377E+03</rscale>
<asrwt>0</asrwt>
<pdfrwt beam="1">  1       21 0.12721151E+00 0.17677377E+03</pdfrwt>
<pdfrwt beam="2">  1       21 0.65262716E-02 0.17677377E+03</pdfrwt>
<totfact> 0.78509334E+04</totfact>
</mgrwt>
</event>
<event>
 4    1  0.4349106E+000  0.1862488E+03  0.7546771E-02  0.1161889E+00
         21   -1    0    0  503  502  0.00000000000E+00  0.00000000000E+00  0.30452255601E+03  0.30452255601E+03  0.00000000000E+00 0. -1.
         21   -1    0    0  501  503 -0.00000000000E+00 -0.00000000000E+00 -0.36614569511E+03  0.36614569511E+03  0.00000000000E+00 0. -1.
          6    1    1    2  501    0  0.54392679110E+02 -0.42438691392E+02 -0.30913694909E+03  0.36090754960E+03  0.17300000000E+03 0. -1.
         -6    1    1    2    0  502 -0.54392679110E+02  0.42438691392E+02  0.24751380999E+03  0.30976070151E+03  0.17300000000E+03 0. -1.
<mgrwt>
<rscale>  2 0.18624877E+03</rscale>
<asrwt>0</asrwt>
<pdfrwt beam="1">  1       21 0.46849624E-01 0.18624877E+03</pdfrwt>
<pdfrwt beam="2">  1       21 0.56330107E-01 0.18624877E+03</pdfrwt>
<totfact> 0.12986155E+04</totfact>
</mgrwt>
</event>
<event>
 4    1  0.4349106E+000  0.2812094E+03  0.7546771E-02  0.1095030E+00
         21   -1    0    0  501  502  0.00000000000E+00  0.00000000000E+00  0.99570573182E+03  0.99570573182E+03  0.00000000000E+00 0. -1.
         21   -1    0    0  502  503 -0.00000000000E+00 -0.00000000000E+00 -0.11687482330E+03  0.11687482330E+03  0.00000000000E+00 0.  1.
          6    1    1    2  501    0  0.18081947211E+03 -0.12827330018E+03  0.75433251622E+03  0.80504426342E+03  0.17300000000E+03 0. -1.
         -6    1    1    2    0  503 -0.18081947211E+03  0.12827330018E+03  0.12449839230E+03  0.30753629171E+03  0.17300000000E+03 0.  1.
<mgrwt>
<rscale>  2 0.28120939E+03</rscale>
<asrwt>0</asrwt>
<pdfrwt beam="1">  1       21 0.15318549E+00 0.28120939E+03</pdfrwt>
<pdfrwt beam="2">  1       21 0.17980743E-01 0.28120939E+03</pdfrwt>
<totfact> 0.74943094E+03</totfact>
</mgrwt>
</event>
<event>
 4    1  0.4349106E+000  0.1774907E+03  0.7546771E-02  0.1170254E+00
         21   -1    0    0  503  502  0.00000000000E+00  0.00000000000E+00  0.24710467198E+03  0.24710467198E+03  0.00000000000E+00 0. -1.
         21   -1    0    0  501  503 -0.00000000000E+00 -0.00000000000E+00 -0.58248749583E+03  0.58248749583E+03  0.00000000000E+00 0. -1.
          6    1    1    2  501    0 -0.50783990143E+01  0.39346488987E+02 -0.53429498533E+03  0.56300450059E+03  0.17300000000E+03 0. -1.
         -6    1    1    2    0  502  0.50783990143E+01 -0.39346488987E+02  0.19891216148E+03  0.26658766722E+03  0.17300000000E+03 0. -1.
<mgrwt>
<rscale>  2 0.17749067E+03</rscale>
<asrwt>0</asrwt>
<pdfrwt beam="1">  1       21 0.38016104E-01 0.17749067E+03</pdfrwt>
<pdfrwt beam="2">  1       21 0.89613460E-01 0.17749067E+03</pdfrwt>
<totfact> 0.71620777E+03</totfact>
</mgrwt>
</event>
<event>
 4    1  0.4349106E+000  0.2152014E+03  0.7546771E-02  0.1137512E+00
         21   -1    0    0  503  502  0.00000000000E+00  0.00000000000E+00  0.12199925438E+04  0.12199925438E+04  0.00000000000E+00 0. -1.
         21   -1    0    0  501  503 -0.00000000000E+00 -0.00000000000E+00 -0.40037581270E+02  0.40037581270E+02  0.00000000000E+00 0.  1.
          6    1    1    2  501    0 -0.86820804970E+02  0.94046649635E+02  0.44648293227E+03  0.49563962038E+03  0.17300000000E+03 0.  1.
         -6    1    1    2    0  502  0.86820804970E+02 -0.94046649635E+02  0.73347203023E+03  0.76439050466E+03  0.17300000000E+03 0.  1.
<mgrwt>
<rscale>  2 0.21520136E+03</rscale>
<asrwt>0</asrwt>
<pdfrwt beam="1">  1       21 0.18769113E+00 0.21520136E+03</pdfrwt>
<pdfrwt beam="2">  1       21 0.61596288E-02 0.21520136E+03</pdfrwt>
<totfact> 0.29994450E+04</totfact>
</mgrwt>
</event>
<event>
 4    1  0.4349106E+000  0.2044372E+03  0.7546771E-02  0.1146048E+00
         21   -1    0    0  503  502  0.00000000000E+00  0.00000000000E+00  0.11915687980E+03  0.11915687980E+03  0.00000000000E+00 0. -1.
         21   -1    0    0  501  503 -0.00000000000E+00 -0.00000000000E+00 -0.36713961248E+03  0.36713961248E+03  0.00000000000E+00 0. -1.
          6    1    1    2  501    0 -0.43862270952E+02 -0.99707975069E+02 -0.17536095769E+03  0.26934372944E+03  0.17300000000E+03 0. -1.
         -6    1    1    2    0  502  0.43862270952E+02  0.99707975069E+02 -0.72621774985E+02  0.21695276285E+03  0.17300000000E+03 0. -1.
<mgrwt>
<rscale>  2 0.20443723E+03</rscale>
<asrwt>0</asrwt>
<pdfrwt beam="1">  1       21 0.18331828E-01 0.20443723E+03</pdfrwt>
<pdfrwt beam="2">  1       21 0.56483017E-01 0.20443723E+03</pdfrwt>
<totfact> 0.79610888E+04</totfact>
</mgrwt>
</event>
<event>
 4    1  0.4349106E+000  0.2298873E+03  0.7546771E-02  0.1126719E+00
         21   -1    0    0  501  502  0.00000000000E+00  0.00000000000E+00  0.24541573499E+03  0.24541573499E+03  0.00000000000E+00 0. -1.
         21   -1    0    0  502  503 -0.00000000000E+00 -0.00000000000E+00 -0.22074942749E+03  0.22074942749E+03  0.00000000000E+00 0. -1.
          6    1    1    2  501    0 -0.27870787569E+02  0.14880316786E+03  0.48815283971E+02  0.23501296882E+03  0.17300000000E+03 0. -1.
         -6    1    1    2    0  503  0.27870787569E+02 -0.14880316786E+03 -0.24148976474E+02  0.23115219365E+03  0.17300000000E+03 0. -1.
<mgrwt>
<rscale>  2 0.22988728E+03</rscale>
<asrwt>0</asrwt>
<pdfrwt beam="1">  1       21 0.37756267E-01 0.22988728E+03</pdfrwt>
<pdfrwt beam="2">  1       21 0.33961450E-01 0.22988728E+03</pdfrwt>
<totfact> 0.55571547E+04</totfact>
</mgrwt>
</event>
<event>
 4    1  0.4349106E+000  0.2284987E+03  0.7546771E-02  0.1127701E+00
         21   -1    0    0  501  502  0.00000000000E+00  0.00000000000E+00  0.46384564242E+03  0.46384564242E+03  0.00000000000E+00 0. -1.
         21   -1    0    0  502  503 -0.00000000000E+00 -0.00000000000E+00 -0.13971329656E+03  0.13971329656E+03  0.00000000000E+00 0.  1.
          6    1    1    2  501    0  0.11163023413E+03 -0.99102679384E+02  0.29509987463E+03  0.37322323915E+03  0.17300000000E+03 0.  1.
         -6    1    1    2    0  503 -0.11163023413E+03  0.99102679384E+02  0.29032471226E+02  0.23033569984E+03  0.17300000000E+03 0. -1.
<mgrwt>
<rscale>  2 0.22849869E+03</rscale>
<asrwt>0</asrwt>
<pdfrwt beam="1">  1       21 0.71360867E-01 0.22849869E+03</pdfrwt>
<pdfrwt beam="2">  1       21 0.21494354E-01 0.22849869E+03</pdfrwt>
<totfact> 0.35159894E+04</totfact>
</mgrwt>
</event>
<event>
 4    1  0.4349106E+000  0.1763225E+03  0.7546771E-02  0.1171410E+00
         21   -1    0    0  501  502  0.00000000000E+00  0.00000000000E+00  0.21211023658E+04  0.21211023658E+04  0.00000000000E+00 0.  1.
         21   -1    0    0  502  503 -0.00000000000E+00 -0.00000000000E+00 -0.23886996655E+02  0.23886996655E+02  0.00000000000E+00 0.  1.
          6    1    1    2  501    0 -0.32436134853E+02 -0.10418138982E+02  0.17152732316E+04  0.17243120076E+04  0.17300000000E+03 0.  1.
         -6    1    1    2    0  503  0.32436134853E+02  0.10418138982E+02  0.38194213751E+03  0.42067735483E+03  0.17300000000E+03 0.  1.
<mgrwt>
<rscale>  2 0.17632255E+03</rscale>
<asrwt>0</asrwt>
<pdfrwt beam="1">  1       21 0.32632329E+00 0.17632255E+03</pdfrwt>
<pdfrwt beam="2">  1       21 0.36749242E-02 0.17632255E+03</pdfrwt>
<totfact> 0.11073199E+04</totfact>
</mgrwt>
</event>
<event>
 4    1  0.4349106E+000  0.1999810E+03  0.7546771E-02  0.1149755E+00
         21   -1    0    0  503  502  0.00000000000E+00  0.00000000000E+00  0.36176821220E+02  0.36176821220E+02  0.00000000000E+00 0. -1.
         21   -1    0    0  501  503 -0.00000000000E+00 -0.00000000000E+00 -0.13514292215E+04  0.13514292215E+04  0.00000000000E+00 0. -1.
          6    1    1    2  501    0 -0.81526975327E+02  0.58452973067E+02 -0.95361202525E+03  0.97435532146E+03  0.17300000000E+03 0. -1.
         -6    1    1    2    0  502  0.81526975327E+02 -0.58452973067E+02 -0.36164037504E+03  0.41325072126E+03  0.17300000000E+03 0. -1.
<mgrwt>
<rscale>  2 0.19998099E+03</rscale>
<asrwt>0</asrwt>
<pdfrwt beam="1">  1       21 0.55656651E-02 0.19998099E+03</pdfrwt>
<pdfrwt beam="2">  1       21 0.20791218E+00 0.19998099E+03</pdfrwt>
<totfact> 0.26665507E+04</totfact>
</mgrwt>
</event>
<event>
 4    1  0.4349106E+000  0.1834850E+03  0.7546771E-02  0.1164472E+00
         21   -1    0    0  503  502  0.00000000000E+00  0.00000000000E+00  0.37764088266E+03  0.37764088266E+03  0.00000000000E+00 0. -1.
         21   -1    0    0  501  503 -0.00000000000E+00 -0.00000000000E+00 -0.10589914151E+03  0.10589914151E+03  0.00000000000E+00 0. -1.
          6    1    1    2  501    0  0.60257716133E+02 -0.10332449096E+02  0.39720672679E+02  0.18773514241E+03  0.17300000000E+03 0. -1.
         -6    1    1    2    0  502 -0.60257716133E+02  0.10332449096E+02  0.23202106847E+03  0.29580488176E+03  0.17300000000E+03 0. -1.
<mgrwt>
<rscale>  2 0.18348502E+03</rscale>
<asrwt>0</asrwt>
<pdfrwt beam="1">  1       21 0.58098597E-01 0.18348502E+03</pdfrwt>
<pdfrwt beam="2">  1       21 0.16292176E-01 0.18348502E+03</pdfrwt>
<totfact> 0.93978999E+04</totfact>
</mgrwt>
</event>
<event>
 4    1  0.4349106E+000  0.1814373E+03  0.7546771E-02  0.1166419E+00
         21   -1    0    0  503  502  0.00000000000E+00  0.00000000000E+00  0.11327118541E+03  0.11327118541E+03  0.00000000000E+00 0.  1.
         21   -1    0    0  501  503 -0.00000000000E+00 -0.00000000000E+00 -0.39235882603E+03  0.39235882603E+03  0.00000000000E+00 0.  1.
          6    1    1    2  501    0 -0.46192847244E+02  0.29269708047E+02 -0.26827766958E+03  0.32387096650E+03  0.17300000000E+03 0.  1.
         -6    1    1    2    0  502  0.46192847244E+02 -0.29269708047E+02 -0.10809971037E+02  0.18175904495E+03  0.17300000000E+03 0.  1.
<mgrwt>
<rscale>  2 0.18143730E+03</rscale>
<asrwt>0</asrwt>
<pdfrwt beam="1">  1       21 0.17426336E-01 0.18143730E+03</pdfrwt>
<pdfrwt beam="2">  1       21 0.60362896E-01 0.18143730E+03</pdfrwt>
<totfact> 0.76596172E+04</totfact>
</mgrwt>
</event>
<event>
 4    1  0.4349106E+000  0.1986135E+03  0.7546771E-02  0.1150914E+00
         21   -1    0    0  503  502  0.00000000000E+00  0.00000000000E+00  0.19601023100E+04  0.19601023100E+04  0.00000000000E+00 0. -1.
         21   -1    0    0  501  503 -0.00000000000E+00 -0.00000000000E+00 -0.27357395582E+02  0.27357395582E+02  0.00000000000E+00 0.  1.
          6    1    1    2  501    0  0.17101393153E+02 -0.96051382603E+02  0.45543474209E+03  0.49685825952E+03  0.17300000000E+03 0.  1.
         -6    1    1    2    0  502 -0.17101393153E+02  0.96051382603E+02  0.14773101724E+04  0.14906014461E+04  0.17300000000E+03 0. -1.
<mgrwt>
<rscale>  2 0.19861351E+03</rscale>
<asrwt>0</asrwt>
<pdfrwt beam="1">  1       21 0.30155409E+00 0.19861351E+03</pdfrwt>
<pdfrwt beam="2">  1       21 0.42088316E-02 0.19861351E+03</pdfrwt>
<totfact> 0.11955742E+04</totfact>
</mgrwt>
</event>
<event>
 4    1  0.4349106E+000  0.1949737E+03  0.7546771E-02  0.1154050E+00
         21   -1    0    0  501  502  0.00000000000E+00  0.00000000000E+00  0.40822987160E+02  0.40822987160E+02  0.00000000000E+00 0.  1.
         21   -1    0    0  502  503 -0.00000000000E+00 -0.00000000000E+00 -0.93134415160E+03  0.93134415160E+03  0.00000000000E+00 0.  1.
          6    1    1    2  501    0 -0.83858233832E+02 -0.32458074905E+02 -0.43940343472E+03  0.48071832548E+03  0.17300000000E+03 0.  1.
         -6    1    1    2    0  503  0.83858233832E+02  0.32458074905E+02 -0.45111772972E+03  0.49144881328E+03  0.17300000000E+03 0.  1.
<mgrwt>
<rscale>  2 0.19497366E+03</rscale>
<asrwt>0</asrwt>
<pdfrwt beam="1">  1       21 0.62804599E-02 0.19497366E+03</pdfrwt>
<pdfrwt beam="2">  1       21 0.14328371E+00 0.19497366E+03</pdfrwt>
<totfact> 0.61361702E+04</totfact>
</mgrwt>
</event>
<event>
 4    1  0.4349106E+000  0.1928187E+03  0.7546771E-02  0.1155943E+00
         21   -1    0    0  501  502  0.00000000000E+00  0.00000000000E+00  0.13486905493E+03  0.13486905493E+03  0.00000000000E+00 0.  1.
         21   -1    0    0  502  503 -0.00000000000E+00 -0.00000000000E+00 -0.27853436429E+03  0.27853436429E+03  0.00000000000E+00 0.  1.
          6    1    1    2  501    0 -0.58350919055E+02 -0.62009703908E+02 -0.92802642234E+02  0.21398916687E+03  0.17300000000E+03 0.  1.
         -6    1    1    2    0  503  0.58350919055E+02  0.62009703908E+02 -0.50862667125E+02  0.19941425235E+03  0.17300000000E+03 0.  1.
<mgrwt>
<rscale>  2 0.19281865E+03</rscale>
<asrwt>0</asrwt>
<pdfrwt beam="1">  1       21 0.20749086E-01 0.19281865E+03</pdfrwt>
<pdfrwt beam="2">  1       21 0.42851440E-01 0.19281865E+03</pdfrwt>
<totfact> 0.11286423E+05</totfact>
</mgrwt>
</event>
<event>
 4    1  0.4349106E+000  0.2805550E+03  0.7546771E-02  0.1095386E+00
         21   -1    0    0  501  502  0.00000000000E+00  0.00000000000E+00  0.30058905875E+03  0.30058905875E+03  0.00000000000E+00 0. -1.
         21   -1    0    0  502  503 -0.00000000000E+00 -0.00000000000E+00 -0.40876399196E+03  0.40876399196E+03  0.00000000000E+00 0. -1.
          6    1    1    2  501    0  0.17404226048E+03 -0.13598302169E+03  0.15853964212E+03  0.32225131303E+03  0.17300000000E+03 0. -1.
         -6    1    1    2    0  503 -0.17404226048E+03  0.13598302169E+03 -0.26671457534E+03  0.38710173769E+03  0.17300000000E+03 0. -1.
<mgrwt>
<rscale>  2 0.28055497E+03</rscale>
<asrwt>0</asrwt>
<pdfrwt beam="1">  1       21 0.46244471E-01 0.28055497E+03</pdfrwt>
<pdfrwt beam="2">  1       21 0.62886768E-01 0.28055497E+03</pdfrwt>
<totfact> 0.99640881E+03</totfact>
</mgrwt>
</event>
<event>
 4    1  0.4349106E+000  0.1773745E+03  0.7546771E-02  0.1170368E+00
         21   -1    0    0  501  502  0.00000000000E+00  0.00000000000E+00  0.28104303885E+03  0.28104303885E+03  0.00000000000E+00 0.  1.
         21   -1    0    0  502  503 -0.00000000000E+00 -0.00000000000E+00 -0.11272272206E+03  0.11272272206E+03  0.00000000000E+00 0.  1.
          6    1    1    2  501    0 -0.59987067811E+01  0.38687480906E+02  0.10050097373E+03  0.20386797537E+03  0.17300000000E+03 0. -1.
         -6    1    1    2    0  503  0.59987067811E+01 -0.38687480906E+02  0.67819343064E+02  0.18989778555E+03  0.17300000000E+03 0. -1.
<mgrwt>
<rscale>  2 0.17737448E+03</rscale>
<asrwt>0</asrwt>
<pdfrwt beam="1">  1       21 0.43237390E-01 0.17737448E+03</pdfrwt>
<pdfrwt beam="2">  1       21 0.17341957E-01 0.17737448E+03</pdfrwt>
<totfact> 0.15541803E+05</totfact>
</mgrwt>
</event>
<event>
 4    1  0.4349106E+000  0.2564986E+03  0.7546771E-02  0.1109265E+00
         21   -1    0    0  503  502  0.00000000000E+00  0.00000000000E+00  0.15468243102E+04  0.15468243102E+04  0.00000000000E+00 0. -1.
         21   -1    0    0  501  503 -0.00000000000E+00 -0.00000000000E+00 -0.10375020722E+03  0.10375020722E+03  0.00000000000E+00 0. -1.
          6    1    1    2  501    0  0.18917004050E+03  0.87883753967E+01  0.87599683730E+02  0.27104472759E+03  0.17300000000E+03 0. -1.
         -6    1    1    2    0  502 -0.18917004050E+03 -0.87883753967E+01  0.13554744193E+04  0.13795297898E+04  0.17300000000E+03 0. -1.
<mgrwt>
<rscale>  2 0.25649862E+03</rscale>
<asrwt>0</asrwt>
<pdfrwt beam="1">  1       21 0.23797295E+00 0.25649862E+03</pdfrwt>
<pdfrwt beam="2">  1       21 0.15961571E-01 0.25649862E+03</pdfrwt>
<totfact> 0.25815685E+03</totfact>
</mgrwt>
</event>
<event>
 4    1  0.4349106E+000  0.1917860E+03  0.7546771E-02  0.1156860E+00
         21   -1    0    0  503  502  0.00000000000E+00  0.00000000000E+00  0.43500882276E+02  0.43500882276E+02  0.00000000000E+00 0.  1.
         21   -1    0    0  501  503 -0.00000000000E+00 -0.00000000000E+00 -0.85397210080E+03  0.85397210080E+03  0.00000000000E+00 0. -1.
          6    1    1    2  501    0  0.45294881525E+02  0.69291090720E+02 -0.44981675868E+03  0.48899590789E+03  0.17300000000E+03 0. -1.
         -6    1    1    2    0  502 -0.45294881525E+02 -0.69291090720E+02 -0.36065445985E+03  0.40847707519E+03  0.17300000000E+03 0. -1.
<mgrwt>
<rscale>  2 0.19178603E+03</rscale>
<asrwt>0</asrwt>
<pdfrwt beam="1">  1       21 0.66924442E-02 0.19178603E+03</pdfrwt>
<pdfrwt beam="2">  1       21 0.13138031E+00 0.19178603E+03</pdfrwt>
<totfact> 0.68825924E+04</totfact>
</mgrwt>
</event>
<event>
 4    1  0.4349106E+000  0.1819227E+03  0.7546771E-02  0.1165955E+00
         21   -1    0    0  503  502  0.00000000000E+00  0.00000000000E+00  0.88832479563E+02  0.88832479563E+02  0.00000000000E+00 0.  1.
         21   -1    0    0  501  503 -0.00000000000E+00 -0.00000000000E+00 -0.14813492700E+04  0.14813492700E+04  0.00000000000E+00 0.  1.
          6    1    1    2  501    0  0.54203451536E+02  0.15127761668E+02 -0.13754850874E+04  0.13874635451E+04  0.17300000000E+03 0.  1.
         -6    1    1    2    0  502 -0.54203451536E+02 -0.15127761668E+02 -0.17031703033E+02  0.18271820446E+03  0.17300000000E+03 0.  1.
<mgrwt>
<rscale>  2 0.18192269E+03</rscale>
<asrwt>0</asrwt>
<pdfrwt beam="1">  1       21 0.13666536E-01 0.18192269E+03</pdfrwt>
<pdfrwt beam="2">  1       21 0.22789987E+00 0.18192269E+03</pdfrwt>
<totfact> 0.42289049E+03</totfact>
</mgrwt>
</event>
<event>
 4    1  0.4349106E+000  0.2371630E+03  0.7546771E-02  0.1121697E+00
         21   -1    0    0  501  502  0.00000000000E+00  0.00000000000E+00  0.21584484168E+03  0.21584484168E+03  0.00000000000E+00 0.  1.
         21   -1    0    0  502  503 -0.00000000000E+00 -0.00000000000E+00 -0.26489903956E+03  0.26489903956E+03  0.00000000000E+00 0. -1.
          6    1    1    2  501    0  0.15322296069E+03  0.53291938361E+02 -0.55195942513E+02  0.24350133151E+03  0.17300000000E+03 0. -1.
         -6    1    1    2    0  503 -0.15322296069E+03 -0.53291938361E+02  0.61417446374E+01  0.23724254973E+03  0.17300000000E+03 0.  1.
<mgrwt>
<rscale>  2 0.23716304E+03</rscale>
<asrwt>0</asrwt>
<pdfrwt beam="1">  1       21 0.33206899E-01 0.23716304E+03</pdfrwt>
<pdfrwt beam="2">  1       21 0.40753698E-01 0.23716304E+03</pdfrwt>
<totfact> 0.49630142E+04</totfact>
</mgrwt>
</event>
<event>
 4    1  0.4349106E+000  0.2762073E+03  0.7546771E-02  0.1097779E+00
         21   -1    0    0  503  502  0.00000000000E+00  0.00000000000E+00  0.28132097869E+03  0.28132097869E+03  0.00000000000E+00 0.  1.
         21   -1    0    0  501  503 -0.00000000000E+00 -0.00000000000E+00 -0.38322389119E+03  0.38322389119E+03  0.00000000000E+00 0. -1.
          6    1    1    2  501    0  0.16275841132E+03 -0.14096522142E+03 -0.23061055915E+03  0.35982179492E+03  0.17300000000E+03 0. -1.
         -6    1    1    2    0  502 -0.16275841132E+03  0.14096522142E+03  0.12870764665E+03  0.30472307496E+03  0.17300000000E+03 0.  1.
<mgrwt>
<rscale>  2 0.27620734E+03</rscale>
<asrwt>0</asrwt>
<pdfrwt beam="1">  1       21 0.43280150E-01 0.27620734E+03</pdfrwt>
<pdfrwt beam="2">  1       21 0.58957522E-01 0.27620734E+03</pdfrwt>
<totfact> 0.13176402E+04</totfact>
</mgrwt>
</event>
<event>
 4    1  0.4349106E+000  0.1896938E+03  0.7546771E-02  0.1158738E+00
         21   -1    0    0  501  502  0.00000000000E+00  0.00000000000E+00  0.25127765593E+03  0.25127765593E+03  0.00000000000E+00 0. -1.
         21   -1    0    0  502  503 -0.00000000000E+00 -0.00000000000E+00 -0.18267084048E+03  0.18267084048E+03  0.00000000000E+00 0.  1.
          6    1    1    2  501    0  0.23806540513E+02  0.74080992961E+02  0.13515774689E+03  0.23291921654E+03  0.17300000000E+03 0. -1.
         -6    1    1    2    0  503 -0.23806540513E+02 -0.74080992961E+02 -0.66550931447E+02  0.20102927987E+03  0.17300000000E+03 0.  1.
<mgrwt>
<rscale>  2 0.18969382E+03</rscale>
<asrwt>0</asrwt>
<pdfrwt beam="1">  1       21 0.38658101E-01 0.18969382E+03</pdfrwt>
<pdfrwt beam="2">  1       21 0.28103206E-01 0.18969382E+03</pdfrwt>
<totfact> 0.78150134E+04</totfact>
</mgrwt>
</event>
<event>
 4    1  0.4349106E+000  0.2038326E+03  0.7546771E-02  0.1146545E+00
         21   -1    0    0  501  502  0.00000000000E+00  0.00000000000E+00  0.20332443714E+03  0.20332443714E+03  0.00000000000E+00 0.  1.
         21   -1    0    0  502  503 -0.00000000000E+00 -0.00000000000E+00 -0.39222274601E+03  0.39222274601E+03  0.00000000000E+00 0.  1.
          6    1    1    2  501    0  0.34774247271E+02 -0.10202687449E+03  0.11164272349E+03  0.23240445155E+03  0.17300000000E+03 0.  1.
         -6    1    1    2    0  503 -0.34774247271E+02  0.10202687449E+03 -0.30054103235E+03  0.36314273161E+03  0.17300000000E+03 0.  1.
<mgrwt>
<rscale>  2 0.20383261E+03</rscale>
<asrwt>0</asrwt>
<pdfrwt beam="1">  1       21 0.31280683E-01 0.20383261E+03</pdfrwt>
<pdfrwt beam="2">  1       21 0.60341960E-01 0.20383261E+03</pdfrwt>
<totfact> 0.24977032E+04</totfact>
</mgrwt>
</event>
<event>
 4    1  0.4349106E+000  0.2349945E+03  0.7546771E-02  0.1123173E+00
         21   -1    0    0  501  502  0.00000000000E+00  0.00000000000E+00  0.82613564187E+02  0.82613564187E+02  0.00000000000E+00 0. -1.
         21   -1    0    0  502  503 -0.00000000000E+00 -0.00000000000E+00 -0.95091550179E+03  0.95091550179E+03  0.00000000000E+00 0. -1.
          6    1    1    2  501    0  0.10643674618E+03  0.11817211202E+03 -0.15250074545E+03  0.28014086877E+03  0.17300000000E+03 0. -1.
         -6    1    1    2    0  503 -0.10643674618E+03 -0.11817211202E+03 -0.71580119216E+03  0.75338819721E+03  0.17300000000E+03 0. -1.
<mgrwt>
<rscale>  2 0.23499453E+03</rscale>
<asrwt>0</asrwt>
<pdfrwt beam="1">  1       21 0.12709779E-01 0.23499453E+03</pdfrwt>
<pdfrwt beam="2">  1       21 0.14629469E+00 0.23499453E+03</pdfrwt>
<totfact> 0.16437667E+04</totfact>
</mgrwt>
</event>
<event>
 4    1  0.4349106E+000  0.2380034E+03  0.7546771E-02  0.1121130E+00
         21   -1    0    0  503  502  0.00000000000E+00  0.00000000000E+00  0.24493764665E+02  0.24493764665E+02  0.00000000000E+00 0.  1.
         21   -1    0    0  501  503 -0.00000000000E+00 -0.00000000000E+00 -0.26467491098E+04  0.26467491098E+04  0.00000000000E+00 0.  1.
          6    1    1    2  501    0  0.90086474448E+02 -0.13638570636E+03 -0.17856550036E+04  0.18014464815E+04  0.17300000000E+03 0.  1.
         -6    1    1    2    0  502 -0.90086474448E+02  0.13638570636E+03 -0.83660034146E+03  0.86979639291E+03  0.17300000000E+03 0.  1.
<mgrwt>
<rscale>  2 0.23800343E+03</rscale>
<asrwt>0</asrwt>
<pdfrwt beam="1">  1       21 0.37682746E-02 0.23800343E+03</pdfrwt>
<pdfrwt beam="2">  1       21 0.40719183E+00 0.23800343E+03</pdfrwt>
<totfact> 0.32093078E+03</totfact>
</mgrwt>
</event>
<event>
 4    1  0.4349106E+000  0.2550508E+03  0.7546771E-02  0.1110154E+00
         21   -1    0    0  503  502  0.00000000000E+00  0.00000000000E+00  0.44984882074E+03  0.44984882074E+03  0.00000000000E+00 0. -1.
         21   -1    0    0  501  503 -0.00000000000E+00 -0.00000000000E+00 -0.63317801730E+03  0.63317801730E+03  0.00000000000E+00 0. -1.
          6    1    1    2  501    0 -0.14266531064E+03  0.12152588671E+03 -0.56733980024E+03  0.62203326353E+03  0.17300000000E+03 0. -1.
         -6    1    1    2    0  502  0.14266531064E+03 -0.12152588671E+03  0.38401060368E+03  0.46099357451E+03  0.17300000000E+03 0. -1.
<mgrwt>
<rscale>  2 0.25505084E+03</rscale>
<asrwt>0</asrwt>
<pdfrwt beam="1">  1       21 0.69207511E-01 0.25505084E+03</pdfrwt>
<pdfrwt beam="2">  1       21 0.97412002E-01 0.25505084E+03</pdfrwt>
<totfact> 0.15753581E+03</totfact>
</mgrwt>
</event>
<event>
 4    1  0.4349106E+000  0.2646181E+03  0.7546771E-02  0.1104400E+00
         21   -1    0    0  501  502  0.00000000000E+00  0.00000000000E+00  0.17294956581E+03  0.17294956581E+03  0.00000000000E+00 0. -1.
         21   -1    0    0  502  503 -0.00000000000E+00 -0.00000000000E+00 -0.44774090960E+03  0.44774090960E+03  0.00000000000E+00 0.  1.
          6    1    1    2  501    0 -0.19952337509E+03 -0.16857574001E+02 -0.41368621334E+02  0.26783225691E+03  0.17300000000E+03 0. -1.
         -6    1    1    2    0  503  0.19952337509E+03  0.16857574001E+02 -0.23342272245E+03  0.35285821851E+03  0.17300000000E+03 0.  1.
<mgrwt>
<rscale>  2 0.26461813E+03</rscale>
<asrwt>0</asrwt>
<pdfrwt beam="1">  1       21 0.26607626E-01 0.26461813E+03</pdfrwt>
<pdfrwt beam="2">  1       21 0.68883216E-01 0.26461813E+03</pdfrwt>
<totfact> 0.24877039E+04</totfact>
</mgrwt>
</event>
<event>
 4    1  0.4349106E+000  0.2008323E+03  0.7546771E-02  0.1149039E+00
         21   -1    0    0  503  502  0.00000000000E+00  0.00000000000E+00  0.63820660341E+02  0.63820660341E+02  0.00000000000E+00 0. -1.
         21   -1    0    0  501  503 -0.00000000000E+00 -0.00000000000E+00 -0.69104641307E+03  0.69104641307E+03  0.00000000000E+00 0.  1.
          6    1    1    2  501    0 -0.37598069931E+02 -0.94820843524E+02 -0.42395571205E+03  0.46911837846E+03  0.17300000000E+03 0.  1.
         -6    1    1    2    0  502  0.37598069931E+02  0.94820843524E+02 -0.20327004068E+03  0.28574869495E+03  0.17300000000E+03 0. -1.
<mgrwt>
<rscale>  2 0.20083229E+03</rscale>
<asrwt>0</asrwt>
<pdfrwt beam="1">  1       21 0.98185637E-02 0.20083229E+03</pdfrwt>
<pdfrwt beam="2">  1       21 0.10631483E+00 0.20083229E+03</pdfrwt>
<totfact> 0.59186412E+04</totfact>
</mgrwt>
</event>
<event>
 4    1  0.4349106E+000  0.2864499E+03  0.7546771E-02  0.1092217E+00
         21   -1    0    0  503  502  0.00000000000E+00  0.00000000000E+00  0.23052463237E+03  0.23052463237E+03  0.00000000000E+00 0. -1.
         21   -1    0    0  501  503 -0.00000000000E+00 -0.00000000000E+00 -0.52768604957E+03  0.52768604957E+03  0.00000000000E+00 0. -1.
          6    1    1    2  501    0  0.22075840851E+03 -0.58225947828E+02 -0.36485863314E+03  0.46386997974E+03  0.17300000000E+03 0. -1.
         -6    1    1    2    0  502 -0.22075840851E+03  0.58225947828E+02  0.67697215943E+02  0.29434070220E+03  0.17300000000E+03 0. -1.
<mgrwt>
<rscale>  2 0.28644988E+03</rscale>
<asrwt>0</asrwt>
<pdfrwt beam="1">  1       21 0.35465328E-01 0.28644988E+03</pdfrwt>
<pdfrwt beam="2">  1       21 0.81182468E-01 0.28644988E+03</pdfrwt>
<totfact> 0.96529971E+03</totfact>
</mgrwt>
</event>
<event>
 4    1  0.4349106E+000  0.2396356E+03  0.7546771E-02  0.1120036E+00
         21   -1    0    0  501  502  0.00000000000E+00  0.00000000000E+00  0.14093455710E+04  0.14093455710E+04  0.00000000000E+00 0. -1.
         21   -1    0    0  502  503 -0.00000000000E+00 -0.00000000000E+00 -0.55137569915E+02  0.55137569915E+02  0.00000000000E+00 0.  1.
          6    1    1    2  501    0 -0.12558326937E+02 -0.16534364149E+03  0.30300696834E+03  0.38631393221E+03  0.17300000000E+03 0.  1.
         -6    1    1    2    0  503  0.12558326937E+02  0.16534364149E+03  0.10512010328E+04  0.10781692087E+04  0.17300000000E+03 0. -1.
<mgrwt>
<rscale>  2 0.23963562E+03</rscale>
<asrwt>0</asrwt>
<pdfrwt beam="1">  1       21 0.21682237E+00 0.23963562E+03</pdfrwt>
<pdfrwt beam="2">  1       21 0.84827041E-02 0.23963562E+03</pdfrwt>
<totfact> 0.10982895E+04</totfact>
</mgrwt>
</event>
<event>
 4    1  0.4349106E+000  0.1984276E+03  0.7546771E-02  0.1151072E+00
         21   -1    0    0  503  502  0.00000000000E+00  0.00000000000E+00  0.15240687651E+03  0.15240687651E+03  0.00000000000E+00 0. -1.
         21   -1    0    0  501  503 -0.00000000000E+00 -0.00000000000E+00 -0.26287775671E+03  0.26287775671E+03  0.00000000000E+00 0. -1.
          6    1    1    2  501    0 -0.88157142933E+02  0.40900043986E+02 -0.82502525314E+02  0.21489570059E+03  0.17300000000E+03 0. -1.
         -6    1    1    2    0  502  0.88157142933E+02 -0.40900043986E+02 -0.27968354883E+02  0.20038893264E+03  0.17300000000E+03 0. -1.
<mgrwt>
<rscale>  2 0.19842756E+03</rscale>
<asrwt>0</asrwt>
<pdfrwt beam="1">  1       21 0.23447212E-01 0.19842756E+03</pdfrwt>
<pdfrwt beam="2">  1       21 0.40442731E-01 0.19842756E+03</pdfrwt>
<totfact> 0.10057553E+05</totfact>
</mgrwt>
</event>
<event>
 4    1  0.4349106E+000  0.1902575E+03  0.7546771E-02  0.1158229E+00
         21   -1    0    0  503  502  0.00000000000E+00  0.00000000000E+00  0.54127785848E+03  0.54127785848E+03  0.00000000000E+00 0.  1.
         21   -1    0    0  501  503 -0.00000000000E+00 -0.00000000000E+00 -0.99453886375E+02  0.99453886375E+02  0.00000000000E+00 0.  1.
          6    1    1    2  501    0 -0.48670222152E+02  0.62450931137E+02  0.37552210621E+02  0.19392802233E+03  0.17300000000E+03 0.  1.
         -6    1    1    2    0  502  0.48670222152E+02 -0.62450931137E+02  0.40427176149E+03  0.44680372252E+03  0.17300000000E+03 0.  1.
<mgrwt>
<rscale>  2 0.19025748E+03</rscale>
<asrwt>0</asrwt>
<pdfrwt beam="1">  1       21 0.83273515E-01 0.19025748E+03</pdfrwt>
<pdfrwt beam="2">  1       21 0.15300598E-01 0.19025748E+03</pdfrwt>
<totfact> 0.47567650E+04</totfact>
</mgrwt>
</event>
<event>
 4    1  0.4349106E+000  0.2057150E+03  0.7546771E-02  0.1145005E+00
         21   -1    0    0  501  502  0.00000000000E+00  0.00000000000E+00  0.14094012069E+03  0.14094012069E+03  0.00000000000E+00 0. -1.
         21   -1    0    0  502  503 -0.00000000000E+00 -0.00000000000E+00 -0.52820853626E+03  0.52820853626E+03  0.00000000000E+00 0.  1.
          6    1    1    2  501    0 -0.11041390161E+03 -0.14087030254E+02  0.26156007990E+02  0.20737119097E+03  0.17300000000E+03 0. -1.
         -6    1    1    2    0  503  0.11041390161E+03  0.14087030254E+02 -0.41342442356E+03  0.46177746598E+03  0.17300000000E+03 0.  1.
<mgrwt>
<rscale>  2 0.20571503E+03</rscale>
<asrwt>0</asrwt>
<pdfrwt beam="1">  1       21 0.21683095E-01 0.20571503E+03</pdfrwt>
<pdfrwt beam="2">  1       21 0.81262852E-01 0.20571503E+03</pdfrwt>
<totfact> 0.26136571E+04</totfact>
</mgrwt>
</event>
<event>
 4    1  0.4349106E+000  0.2673958E+03  0.7546771E-02  0.1102779E+00
         21   -1    0    0  501  502  0.00000000000E+00  0.00000000000E+00  0.59563362940E+03  0.59563362940E+03  0.00000000000E+00 0. -1.
         21   -1    0    0  502  503 -0.00000000000E+00 -0.00000000000E+00 -0.12018608345E+03  0.12018608345E+03  0.00000000000E+00 0. -1.
          6    1    1    2  501    0 -0.19986138660E+03  0.40335218959E+02  0.25015565210E+03  0.36616711215E+03  0.17300000000E+03 0. -1.
         -6    1    1    2    0  503  0.19986138660E+03 -0.40335218959E+02  0.22529189386E+03  0.34965260070E+03  0.17300000000E+03 0. -1.
<mgrwt>
<rscale>  2 0.26739578E+03</rscale>
<asrwt>0</asrwt>
<pdfrwt beam="1">  1       21 0.91635941E-01 0.26739578E+03</pdfrwt>
<pdfrwt beam="2">  1       21 0.18490167E-01 0.26739578E+03</pdfrwt>
<totfact> 0.25905606E+04</totfact>
</mgrwt>
</event>
<event>
 4    1  0.4349106E+000  0.1891768E+03  0.7546771E-02  0.1159206E+00
         21   -1    0    0  501  502  0.00000000000E+00  0.00000000000E+00  0.73850611513E+02  0.73850611513E+02  0.00000000000E+00 0. -1.
         21   -1    0    0  502  503 -0.00000000000E+00 -0.00000000000E+00 -0.20164661792E+04  0.20164661792E+04  0.00000000000E+00 0.  1.
          6    1    1    2  501    0 -0.75891618290E+02  0.99652478656E+01 -0.60351852308E+02  0.19857036528E+03  0.17300000000E+03 0. -1.
         -6    1    1    2    0  503  0.75891618290E+02 -0.99652478656E+01 -0.18822637153E+04  0.18917464254E+04  0.17300000000E+03 0.  1.
<mgrwt>
<rscale>  2 0.18917675E+03</rscale>
<asrwt>0</asrwt>
<pdfrwt beam="1">  1       21 0.11361635E-01 0.18917675E+03</pdfrwt>
<pdfrwt beam="2">  1       21 0.31022551E+00 0.18917675E+03</pdfrwt>
<totfact> 0.19372072E+03</totfact>
</mgrwt>
</event>
<event>
 4    1  0.4349106E+000  0.2123070E+03  0.7546771E-02  0.1139752E+00
         21   -1    0    0  503  502  0.00000000000E+00  0.00000000000E+00  0.18170133833E+03  0.18170133833E+03  0.00000000000E+00 0.  1.
         21   -1    0    0  501  503 -0.00000000000E+00 -0.00000000000E+00 -0.60196080311E+03  0.60196080311E+03  0.00000000000E+00 0.  1.
          6    1    1    2  501    0  0.95490018870E+02  0.77633150273E+02 -0.51056489296E+03  0.55294733895E+03  0.17300000000E+03 0.  1.
         -6    1    1    2    0  502 -0.95490018870E+02 -0.77633150273E+02  0.90305428187E+02  0.23071480248E+03  0.17300000000E+03 0.  1.
<mgrwt>
<rscale>  2 0.21230697E+03</rscale>
<asrwt>0</asrwt>
<pdfrwt beam="1">  1       21 0.27954052E-01 0.21230697E+03</pdfrwt>
<pdfrwt beam="2">  1       21 0.92609354E-01 0.21230697E+03</pdfrwt>
<totfact> 0.11859420E+04</totfact>
</mgrwt>
</event>
<event>
 4    1  0.4349106E+000  0.1916436E+03  0.7546771E-02  0.1156987E+00
         21   -1    0    0  501  502  0.00000000000E+00  0.00000000000E+00  0.99528433591E+02  0.99528433591E+02  0.00000000000E+00 0.  1.
         21   -1    0    0  502  503 -0.00000000000E+00 -0.00000000000E+00 -0.46841394470E+03  0.46841394470E+03  0.00000000000E+00 0.  1.
          6    1    1    2  501    0 -0.82432353978E+02 -0.17867441390E+01 -0.53628631442E+02  0.19900581787E+03  0.17300000000E+03 0.  1.
         -6    1    1    2    0  503  0.82432353978E+02  0.17867441390E+01 -0.31525687967E+03  0.36893656042E+03  0.17300000000E+03 0.  1.
<mgrwt>
<rscale>  2 0.19164364E+03</rscale>
<asrwt>0</asrwt>
<pdfrwt beam="1">  1       21 0.15312067E-01 0.19164364E+03</pdfrwt>
<pdfrwt beam="2">  1       21 0.72063683E-01 0.19164364E+03</pdfrwt>
<totfact> 0.65686457E+04</totfact>
</mgrwt>
</event>
<event>
 4    1  0.4349106E+000  0.1913744E+03  0.7546771E-02  0.1157228E+00
         21   -1    0    0  501  502  0.00000000000E+00  0.00000000000E+00  0.10920428314E+04  0.10920428314E+04  0.00000000000E+00 0.  1.
         21   -1    0    0  502  503 -0.00000000000E+00 -0.00000000000E+00 -0.41600050620E+02  0.41600050620E+02  0.00000000000E+00 0.  1.
          6    1    1    2  501    0 -0.70904441769E+01  0.81516184210E+02  0.77476191643E+03  0.79804773657E+03  0.17300000000E+03 0.  1.
         -6    1    1    2    0  503  0.70904441769E+01 -0.81516184210E+02  0.27568086437E+03  0.33559514548E+03  0.17300000000E+03 0.  1.
<mgrwt>
<rscale>  2 0.19137440E+03</rscale>
<asrwt>0</asrwt>
<pdfrwt beam="1">  1       21 0.16800657E+00 0.19137440E+03</pdfrwt>
<pdfrwt beam="2">  1       21 0.64000086E-02 0.19137440E+03</pdfrwt>
<totfact> 0.38936905E+04</totfact>
</mgrwt>
</event>
<event>
 4    1  0.4349106E+000  0.2339261E+03  0.7546771E-02  0.1123907E+00
         21   -1    0    0  501  502  0.00000000000E+00  0.00000000000E+00  0.27003690790E+03  0.27003690790E+03  0.00000000000E+00 0. -1.
         21   -1    0    0  502  503 -0.00000000000E+00 -0.00000000000E+00 -0.78242315633E+03  0.78242315633E+03  0.00000000000E+00 0. -1.
          6    1    1    2  501    0  0.15103479751E+03 -0.44507212619E+02  0.19679417103E+03  0.30569486058E+03  0.17300000000E+03 0. -1.
         -6    1    1    2    0  503 -0.15103479751E+03  0.44507212619E+02 -0.70918041946E+03  0.74676520365E+03  0.17300000000E+03 0. -1.
<mgrwt>
<rscale>  2 0.23392606E+03</rscale>
<asrwt>0</asrwt>
<pdfrwt beam="1">  1       21 0.41544140E-01 0.23392606E+03</pdfrwt>
<pdfrwt beam="2">  1       21 0.12037279E+00 0.23392606E+03</pdfrwt>
<totfact> 0.28260141E+03</totfact>
</mgrwt>
</event>
<event>
 4    1  0.4349106E+000  0.1917466E+03  0.7546771E-02  0.1156895E+00
         21   -1    0    0  501  502  0.00000000000E+00  0.00000000000E+00  0.65464261571E+02  0.65464261571E+02  0.00000000000E+00 0.  1.
         21   -1    0    0  502  503 -0.00000000000E+00 -0.00000000000E+00 -0.60373074143E+03  0.60373074143E+03  0.00000000000E+00 0. -1.
          6    1    1    2  501    0 -0.82682600117E+02 -0.11533243178E+01 -0.18077602119E+03  0.26352744138E+03  0.17300000000E+03 0.  1.
         -6    1    1    2    0  503  0.82682600117E+02  0.11533243178E+01 -0.35749045866E+03  0.40566756162E+03  0.17300000000E+03 0. -1.
<mgrwt>
<rscale>  2 0.19174656E+03</rscale>
<asrwt>0</asrwt>
<pdfrwt beam="1">  1       21 0.10071425E-01 0.19174656E+03</pdfrwt>
<pdfrwt beam="2">  1       21 0.92881650E-01 0.19174656E+03</pdfrwt>
<totfact> 0.78277373E+04</totfact>
</mgrwt>
</event>
<event>
 4    1  0.4349106E+000  0.2600040E+03  0.7546771E-02  0.1107141E+00
         21   -1    0    0  503  502  0.00000000000E+00  0.00000000000E+00  0.57785917308E+03  0.57785917308E+03  0.00000000000E+00 0.  1.
         21   -1    0    0  501  503 -0.00000000000E+00 -0.00000000000E+00 -0.11731134641E+03  0.11731134641E+03  0.00000000000E+00 0. -1.
          6    1    1    2  501    0  0.20582182032E+02 -0.19300124164E+03  0.21200189681E+03  0.33548011825E+03  0.17300000000E+03 0. -1.
         -6    1    1    2    0  502 -0.20582182032E+02  0.19300124164E+03  0.24854592987E+03  0.35969040124E+03  0.17300000000E+03 0.  1.
<mgrwt>
<rscale>  2 0.26000405E+03</rscale>
<asrwt>0</asrwt>
<pdfrwt beam="1">  1       21 0.88901410E-01 0.26000405E+03</pdfrwt>
<pdfrwt beam="2">  1       21 0.18047900E-01 0.26000405E+03</pdfrwt>
<totfact> 0.29184613E+04</totfact>
</mgrwt>
</event>
<event>
 4    1  0.4349106E+000  0.2046991E+03  0.7546771E-02  0.1145834E+00
         21   -1    0    0  503  502  0.00000000000E+00  0.00000000000E+00  0.46705492535E+02  0.46705492535E+02  0.00000000000E+00 0.  1.
         21   -1    0    0  501  503 -0.00000000000E+00 -0.00000000000E+00 -0.13667596921E+04  0.13667596921E+04  0.00000000000E+00 0. -1.
          6    1    1    2  501    0 -0.43196196534E+02 -0.10053267324E+03 -0.10742924244E+04  0.10936205662E+04  0.17300000000E+03 0. -1.
         -6    1    1    2    0  502  0.43196196534E+02  0.10053267324E+03 -0.24576177518E+03  0.31984461841E+03  0.17300000000E+03 0.  1.
<mgrwt>
<rscale>  2 0.20469912E+03</rscale>
<asrwt>0</asrwt>
<pdfrwt beam="1">  1       21 0.71854611E-02 0.20469912E+03</pdfrwt>
<pdfrwt beam="2">  1       21 0.21027070E+00 0.20469912E+03</pdfrwt>
<totfact> 0.16552566E+04</totfact>
</mgrwt>
</event>
<event>
 4    1  0.4349106E+000  0.2731904E+03  0.7546771E-02  0.1099467E+00
         21   -1    0    0  501  502  0.00000000000E+00  0.00000000000E+00  0.13786638588E+03  0.13786638588E+03  0.00000000000E+00 0.  1.
         21   -1    0    0  502  503 -0.00000000000E+00 -0.00000000000E+00 -0.13382184979E+04  0.13382184979E+04  0.00000000000E+00 0.  1.
          6    1    1    2  501    0 -0.13522199854E+03  0.16253917462E+03 -0.30650626508E+02  0.27490440717E+03  0.17300000000E+03 0.  1.
         -6    1    1    2    0  503  0.13522199854E+03 -0.16253917462E+03 -0.11697014855E+04  0.12011804766E+04  0.17300000000E+03 0.  1.
<mgrwt>
<rscale>  2 0.27319036E+03</rscale>
<asrwt>0</asrwt>
<pdfrwt beam="1">  1       21 0.21210212E-01 0.27319036E+03</pdfrwt>
<pdfrwt beam="2">  1       21 0.20587978E+00 0.27319036E+03</pdfrwt>
<totfact> 0.23740571E+03</totfact>
</mgrwt>
</event>
<event>
 4    1  0.4349106E+000  0.1788176E+03  0.7546771E-02  0.1168952E+00
         21   -1    0    0  501  502  0.00000000000E+00  0.00000000000E+00  0.65189945584E+02  0.65189945584E+02  0.00000000000E+00 0. -1.
         21   -1    0    0  502  503 -0.00000000000E+00 -0.00000000000E+00 -0.49055064839E+03  0.49055064839E+03  0.00000000000E+00 0. -1.
          6    1    1    2  501    0 -0.29143449895E+02 -0.34603401475E+02 -0.21547469977E+03  0.28000907540E+03  0.17300000000E+03 0. -1.
         -6    1    1    2    0  503  0.29143449895E+02  0.34603401475E+02 -0.20988600304E+03  0.27573151858E+03  0.17300000000E+03 0. -1.
<mgrwt>
<rscale>  2 0.17881761E+03</rscale>
<asrwt>0</asrwt>
<pdfrwt beam="1">  1       21 0.10029223E-01 0.17881761E+03</pdfrwt>
<pdfrwt beam="2">  1       21 0.75469329E-01 0.17881761E+03</pdfrwt>
<totfact> 0.12720851E+05</totfact>
</mgrwt>
</event>
<event>
 4    1  0.4349106E+000  0.1756004E+03  0.7546771E-02  0.1172130E+00
         21   -1    0    0  503  502  0.00000000000E+00  0.00000000000E+00  0.27422270075E+03  0.27422270075E+03  0.00000000000E+00 0. -1.
         21   -1    0    0  501  503 -0.00000000000E+00 -0.00000000000E+00 -0.11245678637E+03  0.11245678637E+03  0.00000000000E+00 0. -1.
          6    1    1    2  501    0 -0.27793730808E+02  0.11576802770E+02  0.82688633726E+02  0.19409514157E+03  0.17300000000E+03 0. -1.
         -6    1    1    2    0  502  0.27793730808E+02 -0.11576802770E+02  0.79077280656E+02  0.19258434555E+03  0.17300000000E+03 0. -1.
<mgrwt>
<rscale>  2 0.17560044E+03</rscale>
<asrwt>0</asrwt>
<pdfrwt beam="1">  1       21 0.42188108E-01 0.17560044E+03</pdfrwt>
<pdfrwt beam="2">  1       21 0.17301044E-01 0.17560044E+03</pdfrwt>
<totfact> 0.16418824E+05</totfact>
</mgrwt>
</event>
<event>
 4    1  0.4349106E+000  0.2087629E+03  0.7546771E-02  0.1142549E+00
         21   -1    0    0  503  502  0.00000000000E+00  0.00000000000E+00  0.14785589365E+03  0.14785589365E+03  0.00000000000E+00 0. -1.
         21   -1    0    0  501  503 -0.00000000000E+00 -0.00000000000E+00 -0.30471677598E+03  0.30471677598E+03  0.00000000000E+00 0. -1.
          6    1    1    2  501    0  0.11236386504E+03  0.32051727846E+02 -0.11933551232E+03  0.24046395972E+03  0.17300000000E+03 0. -1.
         -6    1    1    2    0  502 -0.11236386504E+03 -0.32051727846E+02 -0.37525370010E+02  0.21210870991E+03  0.17300000000E+03 0. -1.
<mgrwt>
<rscale>  2 0.20876291E+03</rscale>
<asrwt>0</asrwt>
<pdfrwt beam="1">  1       21 0.22747061E-01 0.20876291E+03</pdfrwt>
<pdfrwt beam="2">  1       21 0.46879503E-01 0.20876291E+03</pdfrwt>
<totfact> 0.78394828E+04</totfact>
</mgrwt>
</event>
<event>
 4    1  0.4349106E+000  0.1961091E+03  0.7546771E-02  0.1153064E+00
         21   -1    0    0  503  502  0.00000000000E+00  0.00000000000E+00  0.13364649035E+03  0.13364649035E+03  0.00000000000E+00 0. -1.
         21   -1    0    0  501  503 -0.00000000000E+00 -0.00000000000E+00 -0.36379178466E+03  0.36379178466E+03  0.00000000000E+00 0.  1.
          6    1    1    2  501    0  0.90799630729E+02 -0.16887828985E+02 -0.22877417420E+03  0.30132440075E+03  0.17300000000E+03 0.  1.
         -6    1    1    2    0  502 -0.90799630729E+02  0.16887828985E+02 -0.13711201080E+01  0.19611387426E+03  0.17300000000E+03 0. -1.
<mgrwt>
<rscale>  2 0.19610908E+03</rscale>
<asrwt>0</asrwt>
<pdfrwt beam="1">  1       21 0.20560999E-01 0.19610908E+03</pdfrwt>
<pdfrwt beam="2">  1       21 0.55967967E-01 0.19610908E+03</pdfrwt>
<totfact> 0.65786907E+04</totfact>
</mgrwt>
</event>
<event>
 4    1  0.4349106E+000  0.2626054E+03  0.7546771E-02  0.1105588E+00
         21   -1    0    0  503  502  0.00000000000E+00  0.00000000000E+00  0.62939299607E+02  0.62939299607E+02  0.00000000000E+00 0. -1.
         21   -1    0    0  501  503 -0.00000000000E+00 -0.00000000000E+00 -0.12710132217E+04  0.12710132217E+04  0.00000000000E+00 0. -1.
          6    1    1    2  501    0 -0.79312770149E+02  0.18094776910E+03 -0.35631645323E+03  0.44263193004E+03  0.17300000000E+03 0. -1.
         -6    1    1    2    0  502  0.79312770149E+02 -0.18094776910E+03 -0.85175746885E+03  0.89132059125E+03  0.17300000000E+03 0. -1.
<mgrwt>
<rscale>  2 0.26260543E+03</rscale>
<asrwt>0</asrwt>
<pdfrwt beam="1">  1       21 0.96829689E-02 0.26260543E+03</pdfrwt>
<pdfrwt beam="2">  1       21 0.19554050E+00 0.26260543E+03</pdfrwt>
<totfact> 0.11723727E+04</totfact>
</mgrwt>
</event>
<event>
 4    1  0.4349106E+000  0.1792073E+03  0.7546771E-02  0.1168572E+00
         21   -1    0    0  501  502  0.00000000000E+00  0.00000000000E+00  0.33258397577E+03  0.33258397577E+03  0.00000000000E+00 0. -1.
         21   -1    0    0  502  503 -0.00000000000E+00 -0.00000000000E+00 -0.13056375023E+03  0.13056375023E+03  0.00000000000E+00 0. -1.
          6    1    1    2  501    0  0.39929398248E+02 -0.24329006365E+02  0.21918451778E+03  0.28312031052E+03  0.17300000000E+03 0. -1.
         -6    1    1    2    0  503 -0.39929398248E+02  0.24329006365E+02 -0.17164292236E+02  0.18002741548E+03  0.17300000000E+03 0. -1.
<mgrwt>
<rscale>  2 0.17920730E+03</rscale>
<asrwt>0</asrwt>
<pdfrwt beam="1">  1       21 0.51166765E-01 0.17920730E+03</pdfrwt>
<pdfrwt beam="2">  1       21 0.20086731E-01 0.17920730E+03</pdfrwt>
<totfact> 0.83596434E+04</totfact>
</mgrwt>
</event>
<event>
 4    1  0.4349106E+000  0.1914324E+03  0.7546771E-02  0.1157176E+00
         21   -1    0    0  501  502  0.00000000000E+00  0.00000000000E+00  0.21993484569E+03  0.21993484569E+03  0.00000000000E+00 0. -1.
         21   -1    0    0  502  503 -0.00000000000E+00 -0.00000000000E+00 -0.17252030393E+03  0.17252030393E+03  0.00000000000E+00 0. -1.
          6    1    1    2  501    0 -0.20372281019E+02 -0.79387225709E+02  0.59985016384E+02  0.20061047737E+03  0.17300000000E+03 0.  1.
         -6    1    1    2    0  503  0.20372281019E+02  0.79387225709E+02 -0.12570474629E+02  0.19184467225E+03  0.17300000000E+03 0.  1.
<mgrwt>
<rscale>  2 0.19143239E+03</rscale>
<asrwt>0</asrwt>
<pdfrwt beam="1">  1       21 0.33836130E-01 0.19143239E+03</pdfrwt>
<pdfrwt beam="2">  1       21 0.26541585E-01 0.19143239E+03</pdfrwt>
<totfact> 0.11370903E+05</totfact>
</mgrwt>
</event>
<event>
 4    1  0.4349106E+000  0.2163598E+03  0.7546771E-02  0.1136626E+00
         21   -1    0    0  503  502  0.00000000000E+00  0.00000000000E+00  0.26791358950E+03  0.26791358950E+03  0.00000000000E+00 0.  1.
         21   -1    0    0  501  503 -0.00000000000E+00 -0.00000000000E+00 -0.20459798942E+03  0.20459798942E+03  0.00000000000E+00 0.  1.
          6    1    1    2  501    0  0.41228930332E+02 -0.12321817981E+03 -0.58616021061E+02  0.22415927921E+03  0.17300000000E+03 0.  1.
         -6    1    1    2    0  502 -0.41228930332E+02  0.12321817981E+03  0.12193162114E+03  0.24835229970E+03  0.17300000000E+03 0.  1.
<mgrwt>
<rscale>  2 0.21635976E+03</rscale>
<asrwt>0</asrwt>
<pdfrwt beam="1">  1       21 0.41217475E-01 0.21635976E+03</pdfrwt>
<pdfrwt beam="2">  1       21 0.31476614E-01 0.21635976E+03</pdfrwt>
<totfact> 0.54387700E+04</totfact>
</mgrwt>
</event>
<event>
 4    1  0.4349106E+000  0.1884425E+03  0.7546771E-02  0.1159874E+00
         21   -1    0    0  503  502  0.00000000000E+00  0.00000000000E+00  0.66735170914E+03  0.66735170914E+03  0.00000000000E+00 0.  1.
         21   -1    0    0  501  503 -0.00000000000E+00 -0.00000000000E+00 -0.58448039662E+02  0.58448039662E+02  0.00000000000E+00 0.  1.
          6    1    1    2  501    0  0.64575172041E+02 -0.37571466609E+02  0.41307877775E+03  0.45403154579E+03  0.17300000000E+03 0.  1.
         -6    1    1    2    0  502 -0.64575172041E+02  0.37571466609E+02  0.19582489173E+03  0.27176820301E+03  0.17300000000E+03 0.  1.
<mgrwt>
<rscale>  2 0.18844248E+03</rscale>
<asrwt>0</asrwt>
<pdfrwt beam="1">  1       21 0.10266949E+00 0.18844248E+03</pdfrwt>
<pdfrwt beam="2">  1       21 0.89920066E-02 0.18844248E+03</pdfrwt>
<totfact> 0.75571541E+04</totfact>
</mgrwt>
</event>
<event>
 4    1  0.4349106E+000  0.2695145E+03  0.7546771E-02  0.1101558E+00
         21   -1    0    0  503  502  0.00000000000E+00  0.00000000000E+00  0.48619360051E+03  0.48619360051E+03  0.00000000000E+00 0.  1.
         21   -1    0    0  501  503 -0.00000000000E+00 -0.00000000000E+00 -0.34178898906E+03  0.34178898906E+03  0.00000000000E+00 0.  1.
          6    1    1    2  501    0 -0.14648242363E+03  0.14578062443E+03 -0.23839701462E+03  0.35982110482E+03  0.17300000000E+03 0.  1.
         -6    1    1    2    0  502  0.14648242363E+03 -0.14578062443E+03  0.38280162607E+03  0.46816148476E+03  0.17300000000E+03 0.  1.
<mgrwt>
<rscale>  2 0.26951455E+03</rscale>
<asrwt>0</asrwt>
<pdfrwt beam="1">  1       21 0.74799016E-01 0.26951455E+03</pdfrwt>
<pdfrwt beam="2">  1       21 0.52582921E-01 0.26951455E+03</pdfrwt>
<totfact> 0.52096121E+03</totfact>
</mgrwt>
</event>
<event>
 4    1  0.4349106E+000  0.1807658E+03  0.7546771E-02  0.1167064E+00
         21   -1    0    0  503  502  0.00000000000E+00  0.00000000000E+00  0.29300437527E+03  0.29300437527E+03  0.00000000000E+00 0.  1.
         21   -1    0    0  501  503 -0.00000000000E+00 -0.00000000000E+00 -0.15049374891E+03  0.15049374891E+03  0.00000000000E+00 0.  1.
          6    1    1    2  501    0  0.25696969590E+02 -0.45683146145E+02 -0.41589176978E+02  0.18548839244E+03  0.17300000000E+03 0.  1.
         -6    1    1    2    0  502 -0.25696969590E+02  0.45683146145E+02  0.18409980334E+03  0.25800973175E+03  0.17300000000E+03 0.  1.
<mgrwt>
<rscale>  2 0.18076583E+03</rscale>
<asrwt>0</asrwt>
<pdfrwt beam="1">  1       21 0.45077596E-01 0.18076583E+03</pdfrwt>
<pdfrwt beam="2">  1       21 0.23152884E-01 0.18076583E+03</pdfrwt>
<totfact> 0.83157696E+04</totfact>
</mgrwt>
</event>
<event>
 4    1  0.4349106E+000  0.2400117E+03  0.7546771E-02  0.1119785E+00
         21   -1    0    0  501  502  0.00000000000E+00  0.00000000000E+00  0.43694154811E+03  0.43694154811E+03  0.00000000000E+00 0. -1.
         21   -1    0    0  502  503 -0.00000000000E+00 -0.00000000000E+00 -0.15201660930E+03  0.15201660930E+03  0.00000000000E+00 0. -1.
          6    1    1    2  501    0 -0.14335397656E+03  0.84417191088E+02  0.24975054709E+03  0.34638267930E+03  0.17300000000E+03 0. -1.
         -6    1    1    2    0  503  0.14335397656E+03 -0.84417191088E+02  0.35174391708E+02  0.24257547811E+03  0.17300000000E+03 0. -1.
<mgrwt>
<rscale>  2 0.24001172E+03</rscale>
<asrwt>0</asrwt>
<pdfrwt beam="1">  1       21 0.67221776E-01 0.24001172E+03</pdfrwt>
<pdfrwt beam="2">  1       21 0.23387171E-01 0.24001172E+03</pdfrwt>
<totfact> 0.34009433E+04</totfact>
</mgrwt>
</event>
<event>
 4    1  0.4349106E+000  0.1814012E+03  0.7546771E-02  0.1166454E+00
         21   -1    0    0  501  502  0.00000000000E+00  0.00000000000E+00  0.38936154317E+02  0.38936154317E+02  0.00000000000E+00 0.  1.
         21   -1    0    0  502  503 -0.00000000000E+00 -0.00000000000E+00 -0.89049965064E+03  0.89049965064E+03  0.00000000000E+00 0.  1.
          6    1    1    2  501    0  0.53784532734E+02 -0.91988233867E+01 -0.32089501707E+03  0.36861905308E+03  0.17300000000E+03 0.  1.
         -6    1    1    2    0  503 -0.53784532734E+02  0.91988233867E+01 -0.53066847925E+03  0.56081675187E+03  0.17300000000E+03 0.  1.
<mgrwt>
<rscale>  2 0.18140120E+03</rscale>
<asrwt>0</asrwt>
<pdfrwt beam="1">  1       21 0.59901779E-02 0.18140120E+03</pdfrwt>
<pdfrwt beam="2">  1       21 0.13699994E+00 0.18140120E+03</pdfrwt>
<totfact> 0.75230251E+04</totfact>
</mgrwt>
</event>
<event>
 4    1  0.4349106E+000  0.1832254E+03  0.7546771E-02  0.1164717E+00
         21   -1    0    0  501  502  0.00000000000E+00  0.00000000000E+00  0.67016857029E+03  0.67016857029E+03  0.00000000000E+00 0. -1.
         21   -1    0    0  502  503 -0.00000000000E+00 -0.00000000000E+00 -0.78829756490E+02  0.78829756490E+02  0.00000000000E+00 0. -1.
          6    1    1    2  501    0  0.58831223928E+02  0.13469840930E+02  0.52177726990E+03  0.55301272039E+03  0.17300000000E+03 0. -1.
         -6    1    1    2    0  503 -0.58831223928E+02 -0.13469840930E+02  0.69561543896E+02  0.19598560639E+03  0.17300000000E+03 0. -1.
<mgrwt>
<rscale>  2 0.18322541E+03</rscale>
<asrwt>0</asrwt>
<pdfrwt beam="1">  1       21 0.10310285E+00 0.18322541E+03</pdfrwt>
<pdfrwt beam="2">  1       21 0.12127655E-01 0.18322541E+03</pdfrwt>
<totfact> 0.44163123E+04</totfact>
</mgrwt>
</event>
<event>
 4    1  0.4349106E+000  0.1780200E+03  0.7546771E-02  0.1169733E+00
         21   -1    0    0  501  502  0.00000000000E+00  0.00000000000E+00  0.10893022399E+03  0.10893022399E+03  0.00000000000E+00 0.  1.
         21   -1    0    0  502  503 -0.00000000000E+00 -0.00000000000E+00 -0.34048731529E+03  0.34048731529E+03  0.00000000000E+00 0.  1.
          6    1    1    2  501    0 -0.26227893552E+01 -0.41895719432E+02 -0.30050876769E+02  0.18053859844E+03  0.17300000000E+03 0.  1.
         -6    1    1    2    0  503  0.26227893552E+01  0.41895719432E+02 -0.20150621454E+03  0.26887894084E+03  0.17300000000E+03 0.  1.
<mgrwt>
<rscale>  2 0.17802003E+03</rscale>
<asrwt>0</asrwt>
<pdfrwt beam="1">  1       21 0.16758496E-01 0.17802003E+03</pdfrwt>
<pdfrwt beam="2">  1       21 0.52382663E-01 0.17802003E+03</pdfrwt>
<totfact> 0.11131141E+05</totfact>
</mgrwt>
</event>
<event>
 4    1  0.4349106E+000  0.2127476E+03  0.7546771E-02  0.1139408E+00
         21   -1    0    0  503  502  0.00000000000E+00  0.00000000000E+00  0.16054456599E+03  0.16054456599E+03  0.00000000000E+00 0. -1.
         21   -1    0    0  501  503 -0.00000000000E+00 -0.00000000000E+00 -0.29671718575E+03  0.29671718575E+03  0.00000000000E+00 0.  1.
          6    1    1    2  501    0 -0.12316378288E+03 -0.12775983463E+02 -0.11913424806E+03  0.24383295968E+03  0.17300000000E+03 0. -1.
         -6    1    1    2    0  502  0.12316378288E+03  0.12775983463E+02 -0.17038371700E+02  0.21342879205E+03  0.17300000000E+03 0.  1.
<mgrwt>
<rscale>  2 0.21274760E+03</rscale>
<asrwt>0</asrwt>
<pdfrwt beam="1">  1       21 0.24699164E-01 0.21274760E+03</pdfrwt>
<pdfrwt beam="2">  1       21 0.45648798E-01 0.21274760E+03</pdfrwt>
<totfact> 0.70694933E+04</totfact>
</mgrwt>
</event>
<event>
 4    1  0.4349106E+000  0.2004054E+03  0.7546771E-02  0.1149397E+00
         21   -1    0    0  503  502  0.00000000000E+00  0.00000000000E+00  0.51217749940E+03  0.51217749940E+03  0.00000000000E+00 0. -1.
         21   -1    0    0  501  503 -0.00000000000E+00 -0.00000000000E+00 -0.24406600293E+03  0.24406600293E+03  0.00000000000E+00 0.  1.
          6    1    1    2  501    0 -0.30666194771E+02  0.96399793558E+02 -0.17745656084E+03  0.26768109138E+03  0.17300000000E+03 0.  1.
         -6    1    1    2    0  502  0.30666194771E+02 -0.96399793558E+02  0.44556805731E+03  0.48856241095E+03  0.17300000000E+03 0. -1.
<mgrwt>
<rscale>  2 0.20040543E+03</rscale>
<asrwt>0</asrwt>
<pdfrwt beam="1">  1       21 0.78796539E-01 0.20040543E+03</pdfrwt>
<pdfrwt beam="2">  1       21 0.37548616E-01 0.20040543E+03</pdfrwt>
<totfact> 0.96828417E+03</totfact>
</mgrwt>
</event>
<event>
 4    1  0.4349106E+000  0.2310699E+03  0.7546771E-02  0.1125889E+00
         21   -1    0    0  503  502  0.00000000000E+00  0.00000000000E+00  0.11237698444E+04  0.11237698444E+04  0.00000000000E+00 0. -1.
         21   -1    0    0  501  503 -0.00000000000E+00 -0.00000000000E+00 -0.54841131891E+02  0.54841131891E+02  0.00000000000E+00 0.  1.
          6    1    1    2  501    0 -0.13938416493E+03 -0.63532153124E+02  0.31904021047E+03  0.39392884612E+03  0.17300000000E+03 0. -1.
         -6    1    1    2    0  502  0.13938416493E+03  0.63532153124E+02  0.74988850207E+03  0.78468213019E+03  0.17300000000E+03 0.  1.
<mgrwt>
<rscale>  2 0.23106986E+03</rscale>
<asrwt>0</asrwt>
<pdfrwt beam="1">  1       21 0.17288765E+00 0.23106986E+03</pdfrwt>
<pdfrwt beam="2">  1       21 0.84370981E-02 0.23106986E+03</pdfrwt>
<totfact> 0.21717472E+04</totfact>
</mgrwt>
</event>
<event>
 4    1  0.4349106E+000  0.2246624E+03  0.7546771E-02  0.1130454E+00
         21   -1    0    0  503  502  0.00000000000E+00  0.00000000000E+00  0.45816495509E+03  0.45816495509E+03  0.00000000000E+00 0.  1.
         21   -1    0    0  501  503 -0.00000000000E+00 -0.00000000000E+00 -0.14974128239E+03  0.14974128239E+03  0.00000000000E+00 0.  1.
          6    1    1    2  501    0 -0.13580652280E+03  0.45834327932E+02 -0.20524938720E+01  0.22467178279E+03  0.17300000000E+03 0.  1.
         -6    1    1    2    0  502  0.13580652280E+03 -0.45834327932E+02  0.31047616657E+03  0.38323445469E+03  0.17300000000E+03 0.  1.
<mgrwt>
<rscale>  2 0.22466241E+03</rscale>
<asrwt>0</asrwt>
<pdfrwt beam="1">  1       21 0.70486915E-01 0.22466241E+03</pdfrwt>
<pdfrwt beam="2">  1       21 0.23037121E-01 0.22466241E+03</pdfrwt>
<totfact> 0.31747423E+04</totfact>
</mgrwt>
</event>
<event>
 4    1  0.4349106E+000  0.2193623E+03  0.7546771E-02  0.1134359E+00
         21   -1    0    0  501  502  0.00000000000E+00  0.00000000000E+00  0.21116146546E+03  0.21116146546E+03  0.00000000000E+00 0. -1.
         21   -1    0    0  502  503 -0.00000000000E+00 -0.00000000000E+00 -0.23950787530E+03  0.23950787530E+03  0.00000000000E+00 0.  1.
          6    1    1    2  501    0 -0.13071670380E+03  0.33225872925E+02  0.35473243256E+02  0.22221198498E+03  0.17300000000E+03 0. -1.
         -6    1    1    2    0  503  0.13071670380E+03 -0.33225872925E+02 -0.63819653097E+02  0.22845735577E+03  0.17300000000E+03 0.  1.
<mgrwt>
<rscale>  2 0.21936229E+03</rscale>
<asrwt>0</asrwt>
<pdfrwt beam="1">  1       21 0.32486379E-01 0.21936229E+03</pdfrwt>
<pdfrwt beam="2">  1       21 0.36847365E-01 0.21936229E+03</pdfrwt>
<totfact> 0.64002902E+04</totfact>
</mgrwt>
</event>
<event>
 4    1  0.4349106E+000  0.1949741E+03  0.7546771E-02  0.1154050E+00
         21   -1    0    0  503  502  0.00000000000E+00  0.00000000000E+00  0.10251861323E+03  0.10251861323E+03  0.00000000000E+00 0.  1.
         21   -1    0    0  501  503 -0.00000000000E+00 -0.00000000000E+00 -0.48526298105E+03  0.48526298105E+03  0.00000000000E+00 0. -1.
          6    1    1    2  501    0  0.47490801000E+02  0.76357907238E+02 -0.33410089540E+03  0.38683111881E+03  0.17300000000E+03 0. -1.
         -6    1    1    2    0  502 -0.47490801000E+02 -0.76357907238E+02 -0.48643472424E+02  0.20095047546E+03  0.17300000000E+03 0.  1.
<mgrwt>
<rscale>  2 0.19497412E+03</rscale>
<asrwt>0</asrwt>
<pdfrwt beam="1">  1       21 0.15772094E-01 0.19497412E+03</pdfrwt>
<pdfrwt beam="2">  1       21 0.74655844E-01 0.19497412E+03</pdfrwt>
<totfact> 0.57437479E+04</totfact>
</mgrwt>
</event>
<event>
 4    1  0.4349106E+000  0.2463721E+03  0.7546771E-02  0.1115619E+00
         21   -1    0    0  503  502  0.00000000000E+00  0.00000000000E+00  0.12382610223E+03  0.12382610223E+03  0.00000000000E+00 0.  1.
         21   -1    0    0  501  503 -0.00000000000E+00 -0.00000000000E+00 -0.63704705236E+03  0.63704705236E+03  0.00000000000E+00 0. -1.
          6    1    1    2  501    0 -0.60993391808E+02  0.16446894714E+03 -0.43926609158E+03  0.50364067313E+03  0.17300000000E+03 0. -1.
         -6    1    1    2    0  502  0.60993391808E+02 -0.16446894714E+03 -0.73954858553E+02  0.25723248146E+03  0.17300000000E+03 0.  1.
<mgrwt>
<rscale>  2 0.24637213E+03</rscale>
<asrwt>0</asrwt>
<pdfrwt beam="1">  1       21 0.19050169E-01 0.24637213E+03</pdfrwt>
<pdfrwt beam="2">  1       21 0.98007240E-01 0.24637213E+03</pdfrwt>
<totfact> 0.21113686E+04</totfact>
</mgrwt>
</event>
<event>
 4    1  0.4349106E+000  0.2650805E+03  0.7546771E-02  0.1104129E+00
         21   -1    0    0  501  502  0.00000000000E+00  0.00000000000E+00  0.19592416936E+03  0.19592416936E+03  0.00000000000E+00 0.  1.
         21   -1    0    0  502  503 -0.00000000000E+00 -0.00000000000E+00 -0.31523115699E+04  0.31523115699E+04  0.00000000000E+00 0.  1.
          6    1    1    2  501    0 -0.49352517906E+02 -0.19468699438E+03  0.97814822987E+02  0.28255165262E+03  0.17300000000E+03 0.  1.
         -6    1    1    2    0  503  0.49352517906E+02  0.19468699438E+03 -0.30542022236E+04  0.30656840867E+04  0.17300000000E+03 0.  1.
<mgrwt>
<rscale>  2 0.26508055E+03</rscale>
<asrwt>0</asrwt>
<pdfrwt beam="1">  1       21 0.30142180E-01 0.26508055E+03</pdfrwt>
<pdfrwt beam="2">  1       21 0.48497101E+00 0.26508055E+03</pdfrwt>
<totfact> 0.22470182E+01</totfact>
</mgrwt>
</event>
<event>
 4    1  0.4349106E+000  0.1966384E+03  0.7546771E-02  0.1152607E+00
         21   -1    0    0  503  502  0.00000000000E+00  0.00000000000E+00  0.29646186667E+03  0.29646186667E+03  0.00000000000E+00 0.  1.
         21   -1    0    0  501  503 -0.00000000000E+00 -0.00000000000E+00 -0.15654649576E+03  0.15654649576E+03  0.00000000000E+00 0.  1.
          6    1    1    2  501    0  0.80012177071E+02  0.48329322598E+02 -0.22562356318E+02  0.19792860285E+03  0.17300000000E+03 0.  1.
         -6    1    1    2    0  502 -0.80012177071E+02 -0.48329322598E+02  0.16247772723E+03  0.25507975958E+03  0.17300000000E+03 0.  1.
<mgrwt>
<rscale>  2 0.19663843E+03</rscale>
<asrwt>0</asrwt>
<pdfrwt beam="1">  1       21 0.45609518E-01 0.19663843E+03</pdfrwt>
<pdfrwt beam="2">  1       21 0.24084076E-01 0.19663843E+03</pdfrwt>
<totfact> 0.74834663E+04</totfact>
</mgrwt>
</event>
<event>
 4    1  0.4349106E+000  0.1818206E+03  0.7546771E-02  0.1166053E+00
         21   -1    0    0  503  502  0.00000000000E+00  0.00000000000E+00  0.23075459910E+04  0.23075459910E+04  0.00000000000E+00 0.  1.
         21   -1    0    0  501  503 -0.00000000000E+00 -0.00000000000E+00 -0.28621099553E+02  0.28621099553E+02  0.00000000000E+00 0.  1.
          6    1    1    2  501    0  0.27643806186E+02  0.48636877088E+02  0.31395892458E+03  0.36280701779E+03  0.17300000000E+03 0.  1.
         -6    1    1    2    0  502 -0.27643806186E+02 -0.48636877088E+02  0.19649659669E+04  0.19733600728E+04  0.17300000000E+03 0.  1.
<mgrwt>
<rscale>  2 0.18182059E+03</rscale>
<asrwt>0</asrwt>
<pdfrwt beam="1">  1       21 0.35500693E+00 0.18182059E+03</pdfrwt>
<pdfrwt beam="2">  1       21 0.44032479E-02 0.18182059E+03</pdfrwt>
<totfact> 0.55248065E+03</totfact>
</mgrwt>
</event>
<event>
 4    1  0.4349106E+000  0.2041630E+03  0.7546771E-02  0.1146273E+00
         21   -1    0    0  503  502  0.00000000000E+00  0.00000000000E+00  0.37147671245E+03  0.37147671245E+03  0.00000000000E+00 0. -1.
         21   -1    0    0  501  503 -0.00000000000E+00 -0.00000000000E+00 -0.11244926737E+03  0.11244926737E+03  0.00000000000E+00 0.  1.
          6    1    1    2  501    0  0.68526609893E+02  0.84009643426E+02  0.11829702793E+03  0.23595911355E+03  0.17300000000E+03 0.  1.
         -6    1    1    2    0  502 -0.68526609893E+02 -0.84009643426E+02  0.14073041715E+03  0.24796686626E+03  0.17300000000E+03 0. -1.
<mgrwt>
<rscale>  2 0.20416297E+03</rscale>
<asrwt>0</asrwt>
<pdfrwt beam="1">  1       21 0.57150263E-01 0.20416297E+03</pdfrwt>
<pdfrwt beam="2">  1       21 0.17299887E-01 0.20416297E+03</pdfrwt>
<totfact> 0.86438000E+04</totfact>
</mgrwt>
</event>
<event>
 4    1  0.4349106E+000  0.1985507E+03  0.7546771E-02  0.1150968E+00
         21   -1    0    0  503  502  0.00000000000E+00  0.00000000000E+00  0.47316326378E+03  0.47316326378E+03  0.00000000000E+00 0.  1.
         21   -1    0    0  501  503 -0.00000000000E+00 -0.00000000000E+00 -0.89751394989E+02  0.89751394989E+02  0.00000000000E+00 0.  1.
          6    1    1    2  501    0  0.71326558162E+02 -0.66376950252E+02  0.11634302207E+03  0.23012621799E+03  0.17300000000E+03 0.  1.
         -6    1    1    2    0  502 -0.71326558162E+02  0.66376950252E+02  0.26706884672E+03  0.33278844078E+03  0.17300000000E+03 0.  1.
<mgrwt>
<rscale>  2 0.19855069E+03</rscale>
<asrwt>0</asrwt>
<pdfrwt beam="1">  1       21 0.72794347E-01 0.19855069E+03</pdfrwt>
<pdfrwt beam="2">  1       21 0.13807907E-01 0.19855069E+03</pdfrwt>
<totfact> 0.77263515E+04</totfact>
</mgrwt>
</event>
<event>
 4    1  0.4349106E+000  0.1765665E+03  0.7546771E-02  0.1171168E+00
         21   -1    0    0  501  502  0.00000000000E+00  0.00000000000E+00  0.57487657246E+03  0.57487657246E+03  0.00000000000E+00 0. -1.
         21   -1    0    0  502  503 -0.00000000000E+00 -0.00000000000E+00 -0.32379423484E+03  0.32379423484E+03  0.00000000000E+00 0. -1.
          6    1    1    2  501    0  0.99079211808E+00 -0.35295032805E+02  0.53552524340E+03  0.56388208637E+03  0.17300000000E+03 0. -1.
         -6    1    1    2    0  503 -0.99079211808E+00  0.35295032805E+02 -0.28444290578E+03  0.33478872093E+03  0.17300000000E+03 0. -1.
<mgrwt>
<rscale>  2 0.17656648E+03</rscale>
<asrwt>0</asrwt>
<pdfrwt beam="1">  1       21 0.88442549E-01 0.17656648E+03</pdfrwt>
<pdfrwt beam="2">  1       21 0.49814498E-01 0.17656648E+03</pdfrwt>
<totfact> 0.42566700E+03</totfact>
</mgrwt>
</event>
<event>
 4    1  0.4349106E+000  0.3210076E+03  0.7546771E-02  0.1075186E+00
         21   -1    0    0  501  502  0.00000000000E+00  0.00000000000E+00  0.72623706086E+02  0.72623706086E+02  0.00000000000E+00 0.  1.
         21   -1    0    0  502  503 -0.00000000000E+00 -0.00000000000E+00 -0.20555664611E+04  0.20555664611E+04  0.00000000000E+00 0. -1.
          6    1    1    2  501    0  0.24735822464E+03  0.10922821753E+03 -0.39926905541E+03  0.51231013401E+03  0.17300000000E+03 0.  1.
         -6    1    1    2    0  503 -0.24735822464E+03 -0.10922821753E+03 -0.15836736996E+04  0.16158800331E+04  0.17300000000E+03 0. -1.
<mgrwt>
<rscale>  2 0.32100762E+03</rscale>
<asrwt>0</asrwt>
<pdfrwt beam="1">  1       21 0.11172879E-01 0.32100762E+03</pdfrwt>
<pdfrwt beam="2">  1       21 0.31624096E+00 0.32100762E+03</pdfrwt>
<totfact> 0.16113750E+03</totfact>
</mgrwt>
</event>
<event>
 4    1  0.4349106E+000  0.2110972E+03  0.7546771E-02  0.1140700E+00
         21   -1    0    0  503  502  0.00000000000E+00  0.00000000000E+00  0.51564115535E+03  0.51564115535E+03  0.00000000000E+00 0. -1.
         21   -1    0    0  501  503 -0.00000000000E+00 -0.00000000000E+00 -0.32160894763E+03  0.32160894763E+03  0.00000000000E+00 0. -1.
          6    1    1    2  501    0 -0.15777406469E+02  0.11993369858E+03 -0.26097237658E+03  0.33566143649E+03  0.17300000000E+03 0. -1.
         -6    1    1    2    0  502  0.15777406469E+02 -0.11993369858E+03  0.45500458430E+03  0.50158866648E+03  0.17300000000E+03 0. -1.
<mgrwt>
<rscale>  2 0.21109718E+03</rscale>
<asrwt>0</asrwt>
<pdfrwt beam="1">  1       21 0.79329409E-01 0.21109718E+03</pdfrwt>
<pdfrwt beam="2">  1       21 0.49478299E-01 0.21109718E+03</pdfrwt>
<totfact> 0.53833498E+03</totfact>
</mgrwt>
</event>
<event>
 4    1  0.4349106E+000  0.1755279E+03  0.7546771E-02  0.1172203E+00
         21   -1    0    0  501  502  0.00000000000E+00  0.00000000000E+00  0.15827940574E+03  0.15827940574E+03  0.00000000000E+00 0.  1.
         21   -1    0    0  502  503 -0.00000000000E+00 -0.00000000000E+00 -0.30009542459E+03  0.30009542459E+03  0.00000000000E+00 0.  1.
          6    1    1    2  501    0 -0.29312473057E+02 -0.46725026711E+01  0.64942842854E+02  0.18715668889E+03  0.17300000000E+03 0.  1.
         -6    1    1    2    0  503  0.29312473057E+02  0.46725026711E+01 -0.20675886170E+03  0.27121814144E+03  0.17300000000E+03 0.  1.
<mgrwt>
<rscale>  2 0.17552793E+03</rscale>
<asrwt>0</asrwt>
<pdfrwt beam="1">  1       21 0.24350678E-01 0.17552793E+03</pdfrwt>
<pdfrwt beam="2">  1       21 0.46168527E-01 0.17552793E+03</pdfrwt>
<totfact> 0.72114205E+04</totfact>
</mgrwt>
</event>
<event>
 4    1  0.4349106E+000  0.2159954E+03  0.7546771E-02  0.1136904E+00
         21   -1    0    0  503  502  0.00000000000E+00  0.00000000000E+00  0.23928387187E+03  0.23928387187E+03  0.00000000000E+00 0. -1.
         21   -1    0    0  501  503 -0.00000000000E+00 -0.00000000000E+00 -0.20421265560E+03  0.20421265560E+03  0.00000000000E+00 0. -1.
          6    1    1    2  501    0  0.94424793267E+02  0.88368390579E+02 -0.29631042521E+02  0.21801837702E+03  0.17300000000E+03 0. -1.
         -6    1    1    2    0  502 -0.94424793267E+02 -0.88368390579E+02  0.64702258788E+02  0.22547815045E+03  0.17300000000E+03 0. -1.
<mgrwt>
<rscale>  2 0.21599540E+03</rscale>
<asrwt>0</asrwt>
<pdfrwt beam="1">  1       21 0.36812903E-01 0.21599540E+03</pdfrwt>
<pdfrwt beam="2">  1       21 0.31417332E-01 0.21599540E+03</pdfrwt>
<totfact> 0.68587230E+04</totfact>
</mgrwt>
</event>
<event>
 4    1  0.4349106E+000  0.2033868E+03  0.7546771E-02  0.1146913E+00
         21   -1    0    0  503  502  0.00000000000E+00  0.00000000000E+00  0.16373492712E+03  0.16373492712E+03  0.00000000000E+00 0. -1.
         21   -1    0    0  501  503 -0.00000000000E+00 -0.00000000000E+00 -0.34056953234E+03  0.34056953234E+03  0.00000000000E+00 0. -1.
          6    1    1    2  501    0  0.73624884094E+02 -0.77566535779E+02 -0.21653947564E+03  0.29707833233E+03  0.17300000000E+03 0. -1.
         -6    1    1    2    0  502 -0.73624884094E+02  0.77566535779E+02  0.39704870415E+02  0.20722612713E+03  0.17300000000E+03 0. -1.
<mgrwt>
<rscale>  2 0.20338680E+03</rscale>
<asrwt>0</asrwt>
<pdfrwt beam="1">  1       21 0.25189989E-01 0.20338680E+03</pdfrwt>
<pdfrwt beam="2">  1       21 0.52395313E-01 0.20338680E+03</pdfrwt>
<totfact> 0.51312571E+04</totfact>
</mgrwt>
</event>
<event>
 4    1  0.4349106E+000  0.1889151E+03  0.7546771E-02  0.1159443E+00
         21   -1    0    0  503  502  0.00000000000E+00  0.00000000000E+00  0.49330871496E+02  0.49330871496E+02  0.00000000000E+00 0.  1.
         21   -1    0    0  501  503 -0.00000000000E+00 -0.00000000000E+00 -0.85347383494E+03  0.85347383494E+03  0.00000000000E+00 0. -1.
          6    1    1    2  501    0 -0.40852649224E+02  0.63960788528E+02 -0.57825415216E+03  0.60833114823E+03  0.17300000000E+03 0. -1.
         -6    1    1    2    0  502  0.40852649224E+02 -0.63960788528E+02 -0.22588881128E+03  0.29447355820E+03  0.17300000000E+03 0.  1.
<mgrwt>
<rscale>  2 0.18891512E+03</rscale>
<asrwt>0</asrwt>
<pdfrwt beam="1">  1       21 0.75893652E-02 0.18891512E+03</pdfrwt>
<pdfrwt beam="2">  1       21 0.13130366E+00 0.18891512E+03</pdfrwt>
<totfact> 0.55538983E+04</totfact>
</mgrwt>
</event>
<event>
 4    1  0.4349106E+000  0.1765711E+03  0.7546771E-02  0.1171163E+00
         21   -1    0    0  503  502  0.00000000000E+00  0.00000000000E+00  0.17190163281E+03  0.17190163281E+03  0.00000000000E+00 0.  1.
         21   -1    0    0  501  503 -0.00000000000E+00 -0.00000000000E+00 -0.52045068059E+03  0.52045068059E+03  0.00000000000E+00 0.  1.
          6    1    1    2  501    0 -0.17468911589E+02  0.30711206763E+02 -0.45369652020E+03  0.48684481464E+03  0.17300000000E+03 0.  1.
         -6    1    1    2    0  502  0.17468911589E+02 -0.30711206763E+02  0.10514747242E+03  0.20550749876E+03  0.17300000000E+03 0.  1.
<mgrwt>
<rscale>  2 0.17657107E+03</rscale>
<asrwt>0</asrwt>
<pdfrwt beam="1">  1       21 0.26446405E-01 0.17657107E+03</pdfrwt>
<pdfrwt beam="2">  1       21 0.80069334E-01 0.17657107E+03</pdfrwt>
<totfact> 0.18855147E+04</totfact>
</mgrwt>
</event>
<event>
 4    1  0.4349106E+000  0.1900797E+03  0.7546771E-02  0.1158389E+00
         21   -1    0    0  501  502  0.00000000000E+00  0.00000000000E+00  0.69752654726E+03  0.69752654726E+03  0.00000000000E+00 0. -1.
         21   -1    0    0  502  503 -0.00000000000E+00 -0.00000000000E+00 -0.83124148299E+02  0.83124148299E+02  0.00000000000E+00 0.  1.
          6    1    1    2  501    0  0.30681158444E+02 -0.72525582106E+02  0.54681868404E+03  0.57891360907E+03  0.17300000000E+03 0. -1.
         -6    1    1    2    0  503 -0.30681158444E+02  0.72525582106E+02  0.67583714914E+02  0.20173708649E+03  0.17300000000E+03 0.  1.
<mgrwt>
<rscale>  2 0.19007970E+03</rscale>
<asrwt>0</asrwt>
<pdfrwt beam="1">  1       21 0.10731177E+00 0.19007970E+03</pdfrwt>
<pdfrwt beam="2">  1       21 0.12788331E-01 0.19007970E+03</pdfrwt>
<totfact> 0.36349989E+04</totfact>
</mgrwt>
</event>
<event>
 4    1  0.4349106E+000  0.2077246E+03  0.7546771E-02  0.1143381E+00
         21   -1    0    0  503  502  0.00000000000E+00  0.00000000000E+00  0.19959605652E+03  0.19959605652E+03  0.00000000000E+00 0. -1.
         21   -1    0    0  501  503 -0.00000000000E+00 -0.00000000000E+00 -0.80687449041E+03  0.80687449041E+03  0.00000000000E+00 0.  1.
          6    1    1    2  501    0  0.10413133287E+03 -0.48756146718E+02 -0.73421344362E+03  0.76303268418E+03  0.17300000000E+03 0.  1.
         -6    1    1    2    0  502 -0.10413133287E+03  0.48756146718E+02  0.12693500973E+03  0.24343786275E+03  0.17300000000E+03 0. -1.
<mgrwt>
<rscale>  2 0.20772457E+03</rscale>
<asrwt>0</asrwt>
<pdfrwt beam="1">  1       21 0.30707086E-01 0.20772457E+03</pdfrwt>
<pdfrwt beam="2">  1       21 0.12413454E+00 0.20772457E+03</pdfrwt>
<totfact> 0.48828776E+03</totfact>
</mgrwt>
</event>
<event>
 4    1  0.4349106E+000  0.2045455E+03  0.7546771E-02  0.1145960E+00
         21   -1    0    0  501  502  0.00000000000E+00  0.00000000000E+00  0.85038928053E+02  0.85038928053E+02  0.00000000000E+00 0. -1.
         21   -1    0    0  502  503 -0.00000000000E+00 -0.00000000000E+00 -0.65946452671E+03  0.65946452671E+03  0.00000000000E+00 0. -1.
          6    1    1    2  501    0  0.65039909901E+02 -0.87633823074E+02 -0.99624122439E+02  0.22751668642E+03  0.17300000000E+03 0. -1.
         -6    1    1    2    0  503 -0.65039909901E+02  0.87633823074E+02 -0.47480147622E+03  0.51698676835E+03  0.17300000000E+03 0. -1.
<mgrwt>
<rscale>  2 0.20454554E+03</rscale>
<asrwt>0</asrwt>
<pdfrwt beam="1">  1       21 0.13082912E-01 0.20454554E+03</pdfrwt>
<pdfrwt beam="2">  1       21 0.10145608E+00 0.20454554E+03</pdfrwt>
<totfact> 0.39603800E+04</totfact>
</mgrwt>
</event>
<event>
 4    1  0.4349106E+000  0.1881546E+03  0.7546771E-02  0.1160136E+00
         21   -1    0    0  503  502  0.00000000000E+00  0.00000000000E+00  0.28847670786E+03  0.28847670786E+03  0.00000000000E+00 0. -1.
         21   -1    0    0  501  503 -0.00000000000E+00 -0.00000000000E+00 -0.32802781379E+03  0.32802781379E+03  0.00000000000E+00 0. -1.
          6    1    1    2  501    0  0.64603488233E+02 -0.36049252003E+02 -0.26364229912E+03  0.32389723856E+03  0.17300000000E+03 0. -1.
         -6    1    1    2    0  502 -0.64603488233E+02  0.36049252003E+02  0.22409119318E+03  0.29260728310E+03  0.17300000000E+03 0. -1.
<mgrwt>
<rscale>  2 0.18815462E+03</rscale>
<asrwt>0</asrwt>
<pdfrwt beam="1">  1       21 0.44381032E-01 0.18815462E+03</pdfrwt>
<pdfrwt beam="2">  1       21 0.50465817E-01 0.18815462E+03</pdfrwt>
<totfact> 0.18270381E+04</totfact>
</mgrwt>
</event>
<event>
 4    1  0.4349106E+000  0.1898583E+03  0.7546771E-02  0.1158589E+00
         21   -1    0    0  503  502  0.00000000000E+00  0.00000000000E+00  0.55851597332E+02  0.55851597332E+02  0.00000000000E+00 0. -1.
         21   -1    0    0  501  503 -0.00000000000E+00 -0.00000000000E+00 -0.88319669553E+03  0.88319669553E+03  0.00000000000E+00 0. -1.
          6    1    1    2  501    0 -0.31574882717E+02  0.71555692788E+02 -0.65730725883E+03  0.68417762526E+03  0.17300000000E+03 0. -1.
         -6    1    1    2    0  502  0.31574882717E+02 -0.71555692788E+02 -0.17003783937E+03  0.25487066760E+03  0.17300000000E+03 0. -1.
<mgrwt>
<rscale>  2 0.18985834E+03</rscale>
<asrwt>0</asrwt>
<pdfrwt beam="1">  1       21 0.85925539E-02 0.18985834E+03</pdfrwt>
<pdfrwt beam="2">  1       21 0.13587641E+00 0.18985834E+03</pdfrwt>
<totfact> 0.41000955E+04</totfact>
</mgrwt>
</event>
<event>
 4    1  0.4349106E+000  0.1940506E+03  0.7546771E-02  0.1154858E+00
         21   -1    0    0  503  502  0.00000000000E+00  0.00000000000E+00  0.53431143055E+03  0.53431143055E+03  0.00000000000E+00 0.  1.
         21   -1    0    0  501  503 -0.00000000000E+00 -0.00000000000E+00 -0.70662714711E+02  0.70662714711E+02  0.00000000000E+00 0.  1.
          6    1    1    2  501    0 -0.20230226560E+02  0.85541631200E+02  0.24741219101E+03  0.31443349853E+03  0.17300000000E+03 0.  1.
         -6    1    1    2    0  502  0.20230226560E+02 -0.85541631200E+02  0.21623652483E+03  0.29054064674E+03  0.17300000000E+03 0.  1.
<mgrwt>
<rscale>  2 0.19405059E+03</rscale>
<asrwt>0</asrwt>
<pdfrwt beam="1">  1       21 0.82201756E-01 0.19405059E+03</pdfrwt>
<pdfrwt beam="2">  1       21 0.10871187E-01 0.19405059E+03</pdfrwt>
<totfact> 0.90459002E+04</totfact>
</mgrwt>
</event>
<event>
 4    1  0.4349106E+000  0.1741869E+03  0.7546771E-02  0.1173551E+00
         21   -1    0    0  503  502  0.00000000000E+00  0.00000000000E+00  0.15506618326E+03  0.15506618326E+03  0.00000000000E+00 0.  1.
         21   -1    0    0  501  503 -0.00000000000E+00 -0.00000000000E+00 -0.20951534181E+03  0.20951534181E+03  0.00000000000E+00 0.  1.
          6    1    1    2  501    0 -0.31860392056E+01  0.20048083964E+02 -0.74093155229E+02  0.18929044394E+03  0.17300000000E+03 0.  1.
         -6    1    1    2    0  502  0.31860392056E+01 -0.20048083964E+02  0.19643996684E+02  0.17529108113E+03  0.17300000000E+03 0.  1.
<mgrwt>
<rscale>  2 0.17418690E+03</rscale>
<asrwt>0</asrwt>
<pdfrwt beam="1">  1       21 0.23856336E-01 0.17418690E+03</pdfrwt>
<pdfrwt beam="2">  1       21 0.32233129E-01 0.17418690E+03</pdfrwt>
<totfact> 0.15424120E+05</totfact>
</mgrwt>
</event>
<event>
 4    1  0.4349106E+000  0.3135515E+03  0.7546771E-02  0.1078656E+00
         21   -1    0    0  501  502  0.00000000000E+00  0.00000000000E+00  0.13141289517E+03  0.13141289517E+03  0.00000000000E+00 0.  1.
         21   -1    0    0  502  503 -0.00000000000E+00 -0.00000000000E+00 -0.10133336895E+04  0.10133336895E+04  0.00000000000E+00 0.  1.
          6    1    1    2  501    0  0.13981351148E+03  0.22099265102E+03 -0.14814837092E+03  0.34678885450E+03  0.17300000000E+03 0.  1.
         -6    1    1    2    0  503 -0.13981351148E+03 -0.22099265102E+03 -0.73377242344E+03  0.79795773021E+03  0.17300000000E+03 0.  1.
<mgrwt>
<rscale>  2 0.31355154E+03</rscale>
<asrwt>0</asrwt>
<pdfrwt beam="1">  1       21 0.20217368E-01 0.31355154E+03</pdfrwt>
<pdfrwt beam="2">  1       21 0.15589750E+00 0.31355154E+03</pdfrwt>
<totfact> 0.56365625E+03</totfact>
</mgrwt>
</event>
<event>
 4    1  0.4349106E+000  0.1735279E+03  0.7546771E-02  0.1174218E+00
         21   -1    0    0  501  502  0.00000000000E+00  0.00000000000E+00  0.74758600780E+02  0.74758600780E+02  0.00000000000E+00 0.  1.
         21   -1    0    0  502  503 -0.00000000000E+00 -0.00000000000E+00 -0.86291345344E+03  0.86291345344E+03  0.00000000000E+00 0.  1.
          6    1    1    2  501    0 -0.13282858982E+02  0.25474431126E+01 -0.51723644620E+02  0.18107252476E+03  0.17300000000E+03 0.  1.
         -6    1    1    2    0  503  0.13282858982E+02 -0.25474431126E+01 -0.73643120804E+03  0.75659952946E+03  0.17300000000E+03 0.  1.
<mgrwt>
<rscale>  2 0.17352788E+03</rscale>
<asrwt>0</asrwt>
<pdfrwt beam="1">  1       21 0.11501323E-01 0.17352788E+03</pdfrwt>
<pdfrwt beam="2">  1       21 0.13275592E+00 0.17352788E+03</pdfrwt>
<totfact> 0.26262665E+04</totfact>
</mgrwt>
</event>
<event>
 4    1  0.4349106E+000  0.1780470E+03  0.7546771E-02  0.1169707E+00
         21   -1    0    0  503  502  0.00000000000E+00  0.00000000000E+00  0.26290235351E+03  0.26290235351E+03  0.00000000000E+00 0.  1.
         21   -1    0    0  501  503 -0.00000000000E+00 -0.00000000000E+00 -0.12074740591E+03  0.12074740591E+03  0.00000000000E+00 0.  1.
          6    1    1    2  501    0 -0.41862183929E+02  0.43910776541E+01  0.78223382397E+02  0.19447267561E+03  0.17300000000E+03 0.  1.
         -6    1    1    2    0  502  0.41862183929E+02 -0.43910776541E+01  0.63931565206E+02  0.18917708380E+03  0.17300000000E+03 0.  1.
<mgrwt>
<rscale>  2 0.17804697E+03</rscale>
<asrwt>0</asrwt>
<pdfrwt beam="1">  1       21 0.40446516E-01 0.17804697E+03</pdfrwt>
<pdfrwt beam="2">  1       21 0.18576524E-01 0.17804697E+03</pdfrwt>
<totfact> 0.15670969E+05</totfact>
</mgrwt>
</event>
<event>
 4    1  0.4349106E+000  0.1901910E+03  0.7546771E-02  0.1158289E+00
         21   -1    0    0  503  502  0.00000000000E+00  0.00000000000E+00  0.74533275413E+02  0.74533275413E+02  0.00000000000E+00 0.  1.
         21   -1    0    0  501  503 -0.00000000000E+00 -0.00000000000E+00 -0.55845390089E+03  0.55845390089E+03  0.00000000000E+00 0. -1.
          6    1    1    2  501    0  0.74831078627E+02 -0.25375342699E+02 -0.35649216224E+03  0.40405353616E+03  0.17300000000E+03 0. -1.
         -6    1    1    2    0  502 -0.74831078627E+02  0.25375342699E+02 -0.12742846324E+03  0.22893364014E+03  0.17300000000E+03 0. -1.
<mgrwt>
<rscale>  2 0.19019095E+03</rscale>
<asrwt>0</asrwt>
<pdfrwt beam="1">  1       21 0.11466659E-01 0.19019095E+03</pdfrwt>
<pdfrwt beam="2">  1       21 0.85915979E-01 0.19019095E+03</pdfrwt>
<totfact> 0.74496266E+04</totfact>
</mgrwt>
</event>
<event>
 4    1  0.4349106E+000  0.2375414E+03  0.7546771E-02  0.1121442E+00
         21   -1    0    0  503  502  0.00000000000E+00  0.00000000000E+00  0.57453919594E+03  0.57453919594E+03  0.00000000000E+00 0. -1.
         21   -1    0    0  501  503 -0.00000000000E+00 -0.00000000000E+00 -0.48988643097E+03  0.48988643097E+03  0.00000000000E+00 0.  1.
          6    1    1    2  501    0 -0.14024233390E+03  0.82637931677E+02 -0.43355740631E+03  0.49436622511E+03  0.17300000000E+03 0.  1.
         -6    1    1    2    0  502  0.14024233390E+03 -0.82637931677E+02  0.51821017127E+03  0.57005940180E+03  0.17300000000E+03 0. -1.
<mgrwt>
<rscale>  2 0.23754145E+03</rscale>
<asrwt>0</asrwt>
<pdfrwt beam="1">  1       21 0.88390645E-01 0.23754145E+03</pdfrwt>
<pdfrwt beam="2">  1       21 0.75367143E-01 0.23754145E+03</pdfrwt>
<totfact> 0.16573244E+03</totfact>
</mgrwt>
</event>
<event>
 4    1  0.4349106E+000  0.1775540E+03  0.7546771E-02  0.1170191E+00
         21   -1    0    0  501  502  0.00000000000E+00  0.00000000000E+00  0.16368345267E+03  0.16368345267E+03  0.00000000000E+00 0.  1.
         21   -1    0    0  502  503 -0.00000000000E+00 -0.00000000000E+00 -0.19288330103E+03  0.19288330103E+03  0.00000000000E+00 0.  1.
          6    1    1    2  501    0  0.18030634849E+02 -0.35655646872E+02 -0.21432846957E+02  0.17884293633E+03  0.17300000000E+03 0.  1.
         -6    1    1    2    0  503 -0.18030634849E+02  0.35655646872E+02 -0.77670014031E+01  0.17772381736E+03  0.17300000000E+03 0.  1.
<mgrwt>
<rscale>  2 0.17755402E+03</rscale>
<asrwt>0</asrwt>
<pdfrwt beam="1">  1       21 0.25182070E-01 0.17755402E+03</pdfrwt>
<pdfrwt beam="2">  1       21 0.29674354E-01 0.17755402E+03</pdfrwt>
<totfact> 0.16336931E+05</totfact>
</mgrwt>
</event>
<event>
 4    1  0.4349106E+000  0.2670620E+03  0.7546771E-02  0.1102973E+00
         21   -1    0    0  503  502  0.00000000000E+00  0.00000000000E+00  0.92146502703E+03  0.92146502703E+03  0.00000000000E+00 0.  1.
         21   -1    0    0  501  503 -0.00000000000E+00 -0.00000000000E+00 -0.10281084262E+03  0.10281084262E+03  0.00000000000E+00 0. -1.
          6    1    1    2  501    0  0.12032252987E+03  0.16405982507E+03  0.15472022266E+03  0.30864297286E+03  0.17300000000E+03 0. -1.
         -6    1    1    2    0  502 -0.12032252987E+03 -0.16405982507E+03  0.66393396176E+03  0.71563289679E+03  0.17300000000E+03 0.  1.
<mgrwt>
<rscale>  2 0.26706205E+03</rscale>
<asrwt>0</asrwt>
<pdfrwt beam="1">  1       21 0.14176384E+00 0.26706205E+03</pdfrwt>
<pdfrwt beam="2">  1       21 0.15817053E-01 0.26706205E+03</pdfrwt>
<totfact> 0.11767810E+04</totfact>
</mgrwt>
</event>
<event>
 4    1  0.4349106E+000  0.2135488E+03  0.7546771E-02  0.1138786E+00
         21   -1    0    0  503  502  0.00000000000E+00  0.00000000000E+00  0.77876891453E+02  0.77876891453E+02  0.00000000000E+00 0.  1.
         21   -1    0    0  501  503 -0.00000000000E+00 -0.00000000000E+00 -0.77750815020E+03  0.77750815020E+03  0.00000000000E+00 0.  1.
          6    1    1    2  501    0 -0.15443133668E+02  0.12424001012E+03 -0.56231109925E+03  0.60149550525E+03  0.17300000000E+03 0.  1.
         -6    1    1    2    0  502  0.15443133668E+02 -0.12424001012E+03 -0.13732015950E+03  0.25388953641E+03  0.17300000000E+03 0.  1.
<mgrwt>
<rscale>  2 0.21354875E+03</rscale>
<asrwt>0</asrwt>
<pdfrwt beam="1">  1       21 0.11981060E-01 0.21354875E+03</pdfrwt>
<pdfrwt beam="2">  1       21 0.11961664E+00 0.21354875E+03</pdfrwt>
<totfact> 0.30950198E+04</totfact>
</mgrwt>
</event>
<event>
 4    1  0.4349106E+000  0.1960368E+03  0.7546771E-02  0.1153126E+00
         21   -1    0    0  503  502  0.00000000000E+00  0.00000000000E+00  0.13404852372E+03  0.13404852372E+03  0.00000000000E+00 0.  1.
         21   -1    0    0  501  503 -0.00000000000E+00 -0.00000000000E+00 -0.29504090545E+03  0.29504090545E+03  0.00000000000E+00 0. -1.
          6    1    1    2  501    0 -0.92172549079E+02  0.23803836333E+01 -0.11658970582E+03  0.22808683551E+03  0.17300000000E+03 0. -1.
         -6    1    1    2    0  502  0.92172549079E+02 -0.23803836333E+01 -0.44402675909E+02  0.20100259366E+03  0.17300000000E+03 0.  1.
<mgrwt>
<rscale>  2 0.19603685E+03</rscale>
<asrwt>0</asrwt>
<pdfrwt beam="1">  1       21 0.20622850E-01 0.19603685E+03</pdfrwt>
<pdfrwt beam="2">  1       21 0.45390908E-01 0.19603685E+03</pdfrwt>
<totfact> 0.10133040E+05</totfact>
</mgrwt>
</event>
<event>
 4    1  0.4349106E+000  0.1748705E+03  0.7546771E-02  0.1172862E+00
         21   -1    0    0  503  502  0.00000000000E+00  0.00000000000E+00  0.41417891398E+03  0.41417891398E+03  0.00000000000E+00 0.  1.
         21   -1    0    0  501  503 -0.00000000000E+00 -0.00000000000E+00 -0.10630336463E+03  0.10630336463E+03  0.00000000000E+00 0.  1.
          6    1    1    2  501    0  0.14316915511E+02 -0.21112154066E+02  0.10106914406E+02  0.17516234423E+03  0.17300000000E+03 0.  1.
         -6    1    1    2    0  502 -0.14316915511E+02  0.21112154066E+02  0.29776863494E+03  0.34531993437E+03  0.17300000000E+03 0.  1.
<mgrwt>
<rscale>  2 0.17487052E+03</rscale>
<asrwt>0</asrwt>
<pdfrwt beam="1">  1       21 0.63719832E-01 0.17487052E+03</pdfrwt>
<pdfrwt beam="2">  1       21 0.16354364E-01 0.17487052E+03</pdfrwt>
<totfact> 0.76805875E+04</totfact>
</mgrwt>
</event>
<event>
 4    1  0.4349106E+000  0.2358547E+03  0.7546771E-02  0.1122585E+00
         21   -1    0    0  503  502  0.00000000000E+00  0.00000000000E+00  0.15604584956E+04  0.15604584956E+04  0.00000000000E+00 0.  1.
         21   -1    0    0  501  503 -0.00000000000E+00 -0.00000000000E+00 -0.12704599311E+03  0.12704599311E+03  0.00000000000E+00 0. -1.
          6    1    1    2  501    0 -0.13922558577E+03 -0.79465043824E+02  0.10533590435E+01  0.23585708912E+03  0.17300000000E+03 0.  1.
         -6    1    1    2    0  502  0.13922558577E+03  0.79465043824E+02  0.14323591435E+04  0.14516473996E+04  0.17300000000E+03 0.  1.
<mgrwt>
<rscale>  2 0.23585474E+03</rscale>
<asrwt>0</asrwt>
<pdfrwt beam="1">  1       21 0.24007052E+00 0.23585474E+03</pdfrwt>
<pdfrwt beam="2">  1       21 0.19545538E-01 0.23585474E+03</pdfrwt>
<totfact> 0.17526852E+03</totfact>
</mgrwt>
</event>
<event>
 4    1  0.4349106E+000  0.2029790E+03  0.7546771E-02  0.1147250E+00
         21   -1    0    0  503  502  0.00000000000E+00  0.00000000000E+00  0.68389006234E+03  0.68389006234E+03  0.00000000000E+00 0. -1.
         21   -1    0    0  501  503 -0.00000000000E+00 -0.00000000000E+00 -0.25764699495E+03  0.25764699495E+03  0.00000000000E+00 0. -1.
          6    1    1    2  501    0  0.82245199627E+02 -0.67135824944E+02 -0.19894884609E+03  0.28422022309E+03  0.17300000000E+03 0. -1.
         -6    1    1    2    0  502 -0.82245199627E+02  0.67135824944E+02  0.62519191347E+03  0.65731683420E+03  0.17300000000E+03 0. -1.
<mgrwt>
<rscale>  2 0.20297904E+03</rscale>
<asrwt>0</asrwt>
<pdfrwt beam="1">  1       21 0.10521386E+00 0.20297904E+03</pdfrwt>
<pdfrwt beam="2">  1       21 0.39637999E-01 0.20297904E+03</pdfrwt>
<totfact> 0.44234686E+03</totfact>
</mgrwt>
</event>
<event>
 4    1  0.4349106E+000  0.1762375E+03  0.7546771E-02  0.1171495E+00
         21   -1    0    0  501  502  0.00000000000E+00  0.00000000000E+00  0.25803636464E+03  0.25803636464E+03  0.00000000000E+00 0.  1.
         21   -1    0    0  502  503 -0.00000000000E+00 -0.00000000000E+00 -0.15091864219E+03  0.15091864219E+03  0.00000000000E+00 0.  1.
          6    1    1    2  501    0 -0.32652234345E+02  0.80310267178E+01  0.14555609462E+03  0.22857436969E+03  0.17300000000E+03 0.  1.
         -6    1    1    2    0  503  0.32652234345E+02 -0.80310267178E+01 -0.38438372180E+02  0.18038063714E+03  0.17300000000E+03 0.  1.
<mgrwt>
<rscale>  2 0.17623753E+03</rscale>
<asrwt>0</asrwt>
<pdfrwt beam="1">  1       21 0.39697902E-01 0.17623753E+03</pdfrwt>
<pdfrwt beam="2">  1       21 0.23218253E-01 0.17623753E+03</pdfrwt>
<totfact> 0.10728160E+05</totfact>
</mgrwt>
</event>
<event>
 4    1  0.4349106E+000  0.3321221E+03  0.7546771E-02  0.1070202E+00
         21   -1    0    0  501  502  0.00000000000E+00  0.00000000000E+00  0.22558604933E+04  0.22558604933E+04  0.00000000000E+00 0.  1.
         21   -1    0    0  502  503 -0.00000000000E+00 -0.00000000000E+00 -0.56655479729E+02  0.56655479729E+02  0.00000000000E+00 0. -1.
          6    1    1    2  501    0 -0.15559457138E+03 -0.23699450067E+03  0.15274795196E+04  0.15631694555E+04  0.17300000000E+03 0. -1.
         -6    1    1    2    0  503  0.15559457138E+03  0.23699450067E+03  0.67172549394E+03  0.74934651744E+03  0.17300000000E+03 0.  1.
<mgrwt>
<rscale>  2 0.33212206E+03</rscale>
<asrwt>0</asrwt>
<pdfrwt beam="1">  1       21 0.34705539E+00 0.33212206E+03</pdfrwt>
<pdfrwt beam="2">  1       21 0.87162294E-02 0.33212206E+03</pdfrwt>
<totfact> 0.16277164E+03</totfact>
</mgrwt>
</event>
<event>
 4    1  0.4349106E+000  0.2128940E+03  0.7546771E-02  0.1139295E+00
         21   -1    0    0  501  502  0.00000000000E+00  0.00000000000E+00  0.36465879618E+03  0.36465879618E+03  0.00000000000E+00 0.  1.
         21   -1    0    0  502  503 -0.00000000000E+00 -0.00000000000E+00 -0.24507201551E+03  0.24507201551E+03  0.00000000000E+00 0. -1.
          6    1    1    2  501    0 -0.16532084314E+02  0.12296972295E+03  0.27381634068E+03  0.34684182418E+03  0.17300000000E+03 0.  1.
         -6    1    1    2    0  503  0.16532084314E+02 -0.12296972295E+03 -0.15422956001E+03  0.26288898751E+03  0.17300000000E+03 0. -1.
<mgrwt>
<rscale>  2 0.21289402E+03</rscale>
<asrwt>0</asrwt>
<pdfrwt beam="1">  1       21 0.56101354E-01 0.21289402E+03</pdfrwt>
<pdfrwt beam="2">  1       21 0.37703387E-01 0.21289402E+03</pdfrwt>
<totfact> 0.20049544E+04</totfact>
</mgrwt>
</event>
<event>
 4    1  0.4349106E+000  0.1829200E+03  0.7546771E-02  0.1165007E+00
         21   -1    0    0  501  502  0.00000000000E+00  0.00000000000E+00  0.10002794938E+03  0.10002794938E+03  0.00000000000E+00 0.  1.
         21   -1    0    0  502  503 -0.00000000000E+00 -0.00000000000E+00 -0.37746249518E+03  0.37746249518E+03  0.00000000000E+00 0.  1.
          6    1    1    2  501    0  0.14447582407E+02 -0.57636865021E+02 -0.58175212174E+02  0.19194816008E+03  0.17300000000E+03 0.  1.
         -6    1    1    2    0  503 -0.14447582407E+02  0.57636865021E+02 -0.21925933363E+03  0.28554228448E+03  0.17300000000E+03 0.  1.
<mgrwt>
<rscale>  2 0.18292004E+03</rscale>
<asrwt>0</asrwt>
<pdfrwt beam="1">  1       21 0.15388915E-01 0.18292004E+03</pdfrwt>
<pdfrwt beam="2">  1       21 0.58071154E-01 0.18292004E+03</pdfrwt>
<totfact> 0.10442660E+05</totfact>
</mgrwt>
</event>
<event>
 4    1  0.4349106E+000  0.2326378E+03  0.7546771E-02  0.1124797E+00
         21   -1    0    0  503  502  0.00000000000E+00  0.00000000000E+00  0.16069354142E+03  0.16069354142E+03  0.00000000000E+00 0. -1.
         21   -1    0    0  501  503 -0.00000000000E+00 -0.00000000000E+00 -0.55513645405E+03  0.55513645405E+03  0.00000000000E+00 0. -1.
          6    1    1    2  501    0 -0.12863021594E+03 -0.87439182416E+02 -0.42168759441E+03  0.48160229480E+03  0.17300000000E+03 0. -1.
         -6    1    1    2    0  502  0.12863021594E+03  0.87439182416E+02  0.27244681786E+02  0.23422770067E+03  0.17300000000E+03 0. -1.
<mgrwt>
<rscale>  2 0.23263779E+03</rscale>
<asrwt>0</asrwt>
<pdfrwt beam="1">  1       21 0.24722084E-01 0.23263779E+03</pdfrwt>
<pdfrwt beam="2">  1       21 0.85405607E-01 0.23263779E+03</pdfrwt>
<totfact> 0.17912308E+04</totfact>
</mgrwt>
</event>
<event>
 4    1  0.4349106E+000  0.2201077E+03  0.7546771E-02  0.1133803E+00
         21   -1    0    0  501  502  0.00000000000E+00  0.00000000000E+00  0.25428753554E+03  0.25428753554E+03  0.00000000000E+00 0. -1.
         21   -1    0    0  502  503 -0.00000000000E+00 -0.00000000000E+00 -0.19055815132E+03  0.19055815132E+03  0.00000000000E+00 0.  1.
          6    1    1    2  501    0 -0.81123308128E+02  0.10925844172E+03  0.34923531975E+02  0.22286105827E+03  0.17300000000E+03 0.  1.
         -6    1    1    2    0  503  0.81123308128E+02 -0.10925844172E+03  0.28805852242E+02  0.22198462859E+03  0.17300000000E+03 0. -1.
<mgrwt>
<rscale>  2 0.22010770E+03</rscale>
<asrwt>0</asrwt>
<pdfrwt beam="1">  1       21 0.39121159E-01 0.22010770E+03</pdfrwt>
<pdfrwt beam="2">  1       21 0.29316639E-01 0.22010770E+03</pdfrwt>
<totfact> 0.69376492E+04</totfact>
</mgrwt>
</event>
<event>
 4    1  0.4349106E+000  0.2647995E+03  0.7546771E-02  0.1104293E+00
         21   -1    0    0  503  502  0.00000000000E+00  0.00000000000E+00  0.86592434047E+03  0.86592434047E+03  0.00000000000E+00 0.  1.
         21   -1    0    0  501  503 -0.00000000000E+00 -0.00000000000E+00 -0.82721260623E+02  0.82721260623E+02  0.00000000000E+00 0. -1.
          6    1    1    2  501    0 -0.19434226573E+03 -0.49202056516E+02  0.46050532788E+03  0.53120986025E+03  0.17300000000E+03 0. -1.
         -6    1    1    2    0  502  0.19434226573E+03  0.49202056516E+02  0.32269775196E+03  0.41743574084E+03  0.17300000000E+03 0.  1.
<mgrwt>
<rscale>  2 0.26479947E+03</rscale>
<asrwt>0</asrwt>
<pdfrwt beam="1">  1       21 0.13321912E+00 0.26479947E+03</pdfrwt>
<pdfrwt beam="2">  1       21 0.12726348E-01 0.26479947E+03</pdfrwt>
<totfact> 0.20593091E+04</totfact>
</mgrwt>
</event>
<event>
 4    1  0.4349106E+000  0.2500043E+03  0.7546771E-02  0.1113302E+00
         21   -1    0    0  501  502  0.00000000000E+00  0.00000000000E+00  0.61755312957E+03  0.61755312957E+03  0.00000000000E+00 0. -1.
         21   -1    0    0  502  503 -0.00000000000E+00 -0.00000000000E+00 -0.10877217916E+03  0.10877217916E+03  0.00000000000E+00 0.  1.
          6    1    1    2  501    0  0.35131848938E+02 -0.17702796717E+03  0.15863038527E+03  0.29608402034E+03  0.17300000000E+03 0.  1.
         -6    1    1    2    0  503 -0.35131848938E+02  0.17702796717E+03  0.35015056514E+03  0.43024128839E+03  0.17300000000E+03 0.  1.
<mgrwt>
<rscale>  2 0.25000430E+03</rscale>
<asrwt>0</asrwt>
<pdfrwt beam="1">  1       21 0.95008172E-01 0.25000430E+03</pdfrwt>
<pdfrwt beam="2">  1       21 0.16734182E-01 0.25000430E+03</pdfrwt>
<totfact> 0.28866090E+04</totfact>
</mgrwt>
</event>
<event>
 4    1  0.4349106E+000  0.2197800E+03  0.7546771E-02  0.1134047E+00
         21   -1    0    0  501  502  0.00000000000E+00  0.00000000000E+00  0.18783634609E+02  0.18783634609E+02  0.00000000000E+00 0.  1.
         21   -1    0    0  502  503 -0.00000000000E+00 -0.00000000000E+00 -0.26252789528E+04  0.26252789528E+04  0.00000000000E+00 0.  1.
          6    1    1    2  501    0 -0.84367544484E+02 -0.10609600215E+03 -0.11141363071E+04  0.11356068664E+04  0.17300000000E+03 0.  1.
         -6    1    1    2    0  503  0.84367544484E+02  0.10609600215E+03 -0.14923590111E+04  0.15084557210E+04  0.17300000000E+03 0.  1.
<mgrwt>
<rscale>  2 0.21977999E+03</rscale>
<asrwt>0</asrwt>
<pdfrwt beam="1">  1       21 0.28897910E-02 0.21977999E+03</pdfrwt>
<pdfrwt beam="2">  1       21 0.40388892E+00 0.21977999E+03</pdfrwt>
<totfact> 0.53573274E+03</totfact>
</mgrwt>
</event>
<event>
 4    1  0.4349106E+000  0.2476686E+03  0.7546771E-02  0.1114787E+00
         21   -1    0    0  501  502  0.00000000000E+00  0.00000000000E+00  0.92807806020E+02  0.92807806020E+02  0.00000000000E+00 0. -1.
         21   -1    0    0  502  503 -0.00000000000E+00 -0.00000000000E+00 -0.10834511060E+04  0.10834511060E+04  0.00000000000E+00 0. -1.
          6    1    1    2  501    0  0.17707537065E+03  0.74191645360E+01 -0.12804696544E+03  0.27881132734E+03  0.17300000000E+03 0. -1.
         -6    1    1    2    0  503 -0.17707537065E+03 -0.74191645360E+01 -0.86259633459E+03  0.89744758473E+03  0.17300000000E+03 0. -1.
<mgrwt>
<rscale>  2 0.24766859E+03</rscale>
<asrwt>0</asrwt>
<pdfrwt beam="1">  1       21 0.14278125E-01 0.24766859E+03</pdfrwt>
<pdfrwt beam="2">  1       21 0.16668478E+00 0.24766859E+03</pdfrwt>
<totfact> 0.92899497E+03</totfact>
</mgrwt>
</event>
<event>
 4    1  0.4349106E+000  0.1831648E+03  0.7546771E-02  0.1164775E+00
         21   -1    0    0  503  502  0.00000000000E+00  0.00000000000E+00  0.46255645416E+03  0.46255645416E+03  0.00000000000E+00 0.  1.
         21   -1    0    0  501  503 -0.00000000000E+00 -0.00000000000E+00 -0.72584617228E+02  0.72584617228E+02  0.00000000000E+00 0.  1.
          6    1    1    2  501    0 -0.21026018761E+01  0.60132642788E+02  0.20230587206E+03  0.27290478474E+03  0.17300000000E+03 0.  1.
         -6    1    1    2    0  502  0.21026018761E+01 -0.60132642788E+02  0.18766596487E+03  0.26223628664E+03  0.17300000000E+03 0.  1.
<mgrwt>
<rscale>  2 0.18316483E+03</rscale>
<asrwt>0</asrwt>
<pdfrwt beam="1">  1       21 0.71162529E-01 0.18316483E+03</pdfrwt>
<pdfrwt beam="2">  1       21 0.11166864E-01 0.18316483E+03</pdfrwt>
<totfact> 0.11962691E+05</totfact>
</mgrwt>
</event>
<event>
 4    1  0.4349106E+000  0.2779037E+03  0.7546771E-02  0.1096839E+00
         21   -1    0    0  503  502  0.00000000000E+00  0.00000000000E+00  0.33647372344E+03  0.33647372344E+03  0.00000000000E+00 0. -1.
         21   -1    0    0  501  503 -0.00000000000E+00 -0.00000000000E+00 -0.27197948852E+03  0.27197948852E+03  0.00000000000E+00 0.  1.
          6    1    1    2  501    0  0.21270992052E+03  0.45342696474E+02 -0.87943500052E+02  0.29148675718E+03  0.17300000000E+03 0.  1.
         -6    1    1    2    0  502 -0.21270992052E+03 -0.45342696474E+02  0.15243773497E+03  0.31696645478E+03  0.17300000000E+03 0. -1.
<mgrwt>
<rscale>  2 0.27790371E+03</rscale>
<asrwt>0</asrwt>
<pdfrwt beam="1">  1       21 0.51765188E-01 0.27790371E+03</pdfrwt>
<pdfrwt beam="2">  1       21 0.41842998E-01 0.27790371E+03</pdfrwt>
<totfact> 0.18635839E+04</totfact>
</mgrwt>
</event>
<event>
 4    1  0.4349106E+000  0.2742938E+03  0.7546771E-02  0.1098847E+00
         21   -1    0    0  503  502  0.00000000000E+00  0.00000000000E+00  0.20585479032E+04  0.20585479032E+04  0.00000000000E+00 0. -1.
         21   -1    0    0  501  503 -0.00000000000E+00 -0.00000000000E+00 -0.38977606858E+02  0.38977606858E+02  0.00000000000E+00 0.  1.
          6    1    1    2  501    0  0.19799132857E+03  0.78150563473E+02  0.74797732872E+03  0.79668510783E+03  0.17300000000E+03 0.  1.
         -6    1    1    2    0  502 -0.19799132857E+03 -0.78150563473E+02  0.12715929676E+04  0.13008404022E+04  0.17300000000E+03 0. -1.
<mgrwt>
<rscale>  2 0.27429378E+03</rscale>
<asrwt>0</asrwt>
<pdfrwt beam="1">  1       21 0.31669959E+00 0.27429378E+03</pdfrwt>
<pdfrwt beam="2">  1       21 0.59965565E-02 0.27429378E+03</pdfrwt>
<totfact> 0.49734887E+03</totfact>
</mgrwt>
</event>
<event>
 4    1  0.4349106E+000  0.1999372E+03  0.7546771E-02  0.1149792E+00
         21   -1    0    0  503  502  0.00000000000E+00  0.00000000000E+00  0.36076021764E+03  0.36076021764E+03  0.00000000000E+00 0. -1.
         21   -1    0    0  501  503 -0.00000000000E+00 -0.00000000000E+00 -0.27912266536E+03  0.27912266536E+03  0.00000000000E+00 0. -1.
          6    1    1    2  501    0  0.66556672713E+02 -0.74940643473E+02 -0.20762878497E+03  0.28824399920E+03  0.17300000000E+03 0. -1.
         -6    1    1    2    0  502 -0.66556672713E+02  0.74940643473E+02  0.28926633725E+03  0.35163888379E+03  0.17300000000E+03 0. -1.
<mgrwt>
<rscale>  2 0.19993722E+03</rscale>
<asrwt>0</asrwt>
<pdfrwt beam="1">  1       21 0.55501572E-01 0.19993722E+03</pdfrwt>
<pdfrwt beam="2">  1       21 0.42941948E-01 0.19993722E+03</pdfrwt>
<totfact> 0.15884211E+04</totfact>
</mgrwt>
</event>
<event>
 4    1  0.4349106E+000  0.1904068E+03  0.7546771E-02  0.1158095E+00
         21   -1    0    0  501  502  0.00000000000E+00  0.00000000000E+00  0.25918416536E+03  0.25918416536E+03  0.00000000000E+00 0. -1.
         21   -1    0    0  502  503 -0.00000000000E+00 -0.00000000000E+00 -0.19780794745E+03  0.19780794745E+03  0.00000000000E+00 0. -1.
          6    1    1    2  501    0 -0.41493617989E+02 -0.67852938422E+02  0.15433979299E+03  0.24510306666E+03  0.17300000000E+03 0. -1.
         -6    1    1    2    0  503  0.41493617989E+02  0.67852938422E+02 -0.92963575081E+02  0.21188904615E+03  0.17300000000E+03 0. -1.
<mgrwt>
<rscale>  2 0.19040678E+03</rscale>
<asrwt>0</asrwt>
<pdfrwt beam="1">  1       21 0.39874487E-01 0.19040678E+03</pdfrwt>
<pdfrwt beam="2">  1       21 0.30431992E-01 0.19040678E+03</pdfrwt>
<totfact> 0.62883737E+04</totfact>
</mgrwt>
</event>
<event>
 4    1  0.4349106E+000  0.1776001E+03  0.7546771E-02  0.1170146E+00
         21   -1    0    0  503  502  0.00000000000E+00  0.00000000000E+00  0.15340385565E+02  0.15340385565E+02  0.00000000000E+00 0.  1.
         21   -1    0    0  501  503 -0.00000000000E+00 -0.00000000000E+00 -0.21127809071E+04  0.21127809071E+04  0.00000000000E+00 0.  1.
          6    1    1    2  501    0  0.25527387740E+01  0.40078400739E+02 -0.87447914154E+03  0.89233153238E+03  0.17300000000E+03 0. -1.
         -6    1    1    2    0  502 -0.25527387740E+01 -0.40078400739E+02 -0.12229613800E+04  0.12357897603E+04  0.17300000000E+03 0. -1.
<mgrwt>
<rscale>  2 0.17760010E+03</rscale>
<asrwt>0</asrwt>
<pdfrwt beam="1">  1       21 0.23600596E-02 0.17760010E+03</pdfrwt>
<pdfrwt beam="2">  1       21 0.32504317E+00 0.17760010E+03</pdfrwt>
<totfact> 0.23361670E+04</totfact>
</mgrwt>
</event>
<event>
 4    1  0.4349106E+000  0.2388044E+03  0.7546771E-02  0.1120592E+00
         21   -1    0    0  503  502  0.00000000000E+00  0.00000000000E+00  0.14990366160E+04  0.14990366160E+04  0.00000000000E+00 0.  1.
         21   -1    0    0  501  503 -0.00000000000E+00 -0.00000000000E+00 -0.42018820738E+02  0.42018820738E+02  0.00000000000E+00 0. -1.
          6    1    1    2  501    0  0.11578412871E+03  0.11701525846E+03  0.49148550863E+03  0.54642981284E+03  0.17300000000E+03 0.  1.
         -6    1    1    2    0  502 -0.11578412871E+03 -0.11701525846E+03  0.96553228664E+03  0.99462562390E+03  0.17300000000E+03 0.  1.
<mgrwt>
<rscale>  2 0.23880439E+03</rscale>
<asrwt>0</asrwt>
<pdfrwt beam="1">  1       21 0.23062098E+00 0.23880439E+03</pdfrwt>
<pdfrwt beam="2">  1       21 0.64644351E-02 0.23880439E+03</pdfrwt>
<totfact> 0.14500358E+04</totfact>
</mgrwt>
</event>
<event>
 4    1  0.4349106E+000  0.2140756E+03  0.7546771E-02  0.1138379E+00
         21   -1    0    0  501  502  0.00000000000E+00  0.00000000000E+00  0.39691469863E+03  0.39691469863E+03  0.00000000000E+00 0. -1.
         21   -1    0    0  502  503 -0.00000000000E+00 -0.00000000000E+00 -0.12000106992E+03  0.12000106992E+03  0.00000000000E+00 0. -1.
          6    1    1    2  501    0 -0.10288594445E+03 -0.72896038636E+02  0.18872654576E+03  0.28538755945E+03  0.17300000000E+03 0. -1.
         -6    1    1    2    0  503  0.10288594445E+03  0.72896038636E+02  0.88187082949E+02  0.23152820911E+03  0.17300000000E+03 0. -1.
<mgrwt>
<rscale>  2 0.21407557E+03</rscale>
<asrwt>0</asrwt>
<pdfrwt beam="1">  1       21 0.61063799E-01 0.21407557E+03</pdfrwt>
<pdfrwt beam="2">  1       21 0.18461703E-01 0.21407557E+03</pdfrwt>
<totfact> 0.66201784E+04</totfact>
</mgrwt>
</event>
<event>
 4    1  0.4349106E+000  0.2266793E+03  0.7546771E-02  0.1128999E+00
         21   -1    0    0  503  502  0.00000000000E+00  0.00000000000E+00  0.20558002651E+03  0.20558002651E+03  0.00000000000E+00 0. -1.
         21   -1    0    0  501  503 -0.00000000000E+00 -0.00000000000E+00 -0.39228776800E+03  0.39228776800E+03  0.00000000000E+00 0. -1.
          6    1    1    2  501    0  0.14072045197E+03 -0.40648200672E+02 -0.27342405314E+03  0.35516789643E+03  0.17300000000E+03 0. -1.
         -6    1    1    2    0  502 -0.14072045197E+03  0.40648200672E+02  0.86716311653E+02  0.24269989808E+03  0.17300000000E+03 0. -1.
<mgrwt>
<rscale>  2 0.22667934E+03</rscale>
<asrwt>0</asrwt>
<pdfrwt beam="1">  1       21 0.31627696E-01 0.22667934E+03</pdfrwt>
<pdfrwt beam="2">  1       21 0.60351964E-01 0.22667934E+03</pdfrwt>
<totfact> 0.24132512E+04</totfact>
</mgrwt>
</event>
<event>
 4    1  0.4349106E+000  0.2131539E+03  0.7546771E-02  0.1139093E+00
         21   -1    0    0  501  502  0.00000000000E+00  0.00000000000E+00  0.11587172794E+03  0.11587172794E+03  0.00000000000E+00 0.  1.
         21   -1    0    0  502  503 -0.00000000000E+00 -0.00000000000E+00 -0.55880087230E+03  0.55880087230E+03  0.00000000000E+00 0.  1.
          6    1    1    2  501    0  0.46834950346E+01  0.12443327795E+03 -0.37222341154E+02  0.21637947793E+03  0.17300000000E+03 0.  1.
         -6    1    1    2    0  503 -0.46834950346E+01 -0.12443327795E+03 -0.40570680321E+03  0.45829312231E+03  0.17300000000E+03 0.  1.
<mgrwt>
<rscale>  2 0.21315388E+03</rscale>
<asrwt>0</asrwt>
<pdfrwt beam="1">  1       21 0.17826420E-01 0.21315388E+03</pdfrwt>
<pdfrwt beam="2">  1       21 0.85969365E-01 0.21315388E+03</pdfrwt>
<totfact> 0.33002036E+04</totfact>
</mgrwt>
</event>
<event>
 4    1  0.4349106E+000  0.2105711E+03  0.7546771E-02  0.1141115E+00
         21   -1    0    0  501  502  0.00000000000E+00  0.00000000000E+00  0.11085976427E+04  0.11085976427E+04  0.00000000000E+00 0. -1.
         21   -1    0    0  502  503 -0.00000000000E+00 -0.00000000000E+00 -0.10081349880E+03  0.10081349880E+03  0.00000000000E+00 0. -1.
          6    1    1    2  501    0 -0.83441294880E+02 -0.86305958767E+02  0.97356622276E+03  0.99607798806E+03  0.17300000000E+03 0. -1.
         -6    1    1    2    0  503  0.83441294880E+02  0.86305958767E+02  0.34217921097E+02  0.21333315339E+03  0.17300000000E+03 0. -1.
<mgrwt>
<rscale>  2 0.21057105E+03</rscale>
<asrwt>0</asrwt>
<pdfrwt beam="1">  1       21 0.17055347E+00 0.21057105E+03</pdfrwt>
<pdfrwt beam="2">  1       21 0.15509770E-01 0.21057105E+03</pdfrwt>
<totfact> 0.76937937E+03</totfact>
</mgrwt>
</event>
<event>
 4    1  0.4349106E+000  0.2114976E+03  0.7546771E-02  0.1140386E+00
         21   -1    0    0  501  502  0.00000000000E+00  0.00000000000E+00  0.21805395080E+03  0.21805395080E+03  0.00000000000E+00 0.  1.
         21   -1    0    0  502  503 -0.00000000000E+00 -0.00000000000E+00 -0.20517671585E+03  0.20517671585E+03  0.00000000000E+00 0.  1.
          6    1    1    2  501    0 -0.11824593346E+03 -0.28637855826E+02  0.93323499698E+01  0.21170337815E+03  0.17300000000E+03 0. -1.
         -6    1    1    2    0  503  0.11824593346E+03  0.28637855826E+02  0.35448849779E+01  0.21152728849E+03  0.17300000000E+03 0. -1.
<mgrwt>
<rscale>  2 0.21149758E+03</rscale>
<asrwt>0</asrwt>
<pdfrwt beam="1">  1       21 0.33546762E-01 0.21149758E+03</pdfrwt>
<pdfrwt beam="2">  1       21 0.31565649E-01 0.21149758E+03</pdfrwt>
<totfact> 0.81915531E+04</totfact>
</mgrwt>
</event>
<event>
 4    1  0.4349106E+000  0.1791115E+03  0.7546771E-02  0.1168666E+00
         21   -1    0    0  501  502  0.00000000000E+00  0.00000000000E+00  0.20194293793E+03  0.20194293793E+03  0.00000000000E+00 0.  1.
         21   -1    0    0  502  503 -0.00000000000E+00 -0.00000000000E+00 -0.19652277056E+03  0.19652277056E+03  0.00000000000E+00 0.  1.
          6    1    1    2  501    0  0.78622572751E+01 -0.45717705861E+02  0.89927452611E+02  0.20041923673E+03  0.17300000000E+03 0. -1.
         -6    1    1    2    0  503 -0.78622572751E+01  0.45717705861E+02 -0.84507285241E+02  0.19804647176E+03  0.17300000000E+03 0. -1.
<mgrwt>
<rscale>  2 0.17911148E+03</rscale>
<asrwt>0</asrwt>
<pdfrwt beam="1">  1       21 0.31068144E-01 0.17911148E+03</pdfrwt>
<pdfrwt beam="2">  1       21 0.30234272E-01 0.17911148E+03</pdfrwt>
<totfact> 0.10498241E+05</totfact>
</mgrwt>
</event>
<event>
 4    1  0.4349106E+000  0.1928537E+03  0.7546771E-02  0.1155912E+00
         21   -1    0    0  501  502  0.00000000000E+00  0.00000000000E+00  0.24821081076E+03  0.24821081076E+03  0.00000000000E+00 0.  1.
         21   -1    0    0  502  503 -0.00000000000E+00 -0.00000000000E+00 -0.21179536782E+03  0.21179536782E+03  0.00000000000E+00 0. -1.
          6    1    1    2  501    0  0.35013609509E+00 -0.85225836155E+02  0.14260349380E+03  0.23985062474E+03  0.17300000000E+03 0.  1.
         -6    1    1    2    0  503 -0.35013609509E+00  0.85225836155E+02 -0.10618805086E+03  0.22015555385E+03  0.17300000000E+03 0. -1.
<mgrwt>
<rscale>  2 0.19285374E+03</rscale>
<asrwt>0</asrwt>
<pdfrwt beam="1">  1       21 0.38186278E-01 0.19285374E+03</pdfrwt>
<pdfrwt beam="2">  1       21 0.32583903E-01 0.19285374E+03</pdfrwt>
<totfact> 0.59944625E+04</totfact>
</mgrwt>
</event>
<event>
 4    1  0.4349106E+000  0.1789903E+03  0.7546771E-02  0.1168784E+00
         21   -1    0    0  503  502  0.00000000000E+00  0.00000000000E+00  0.17684663472E+03  0.17684663472E+03  0.00000000000E+00 0. -1.
         21   -1    0    0  501  503 -0.00000000000E+00 -0.00000000000E+00 -0.20202021759E+03  0.20202021759E+03  0.00000000000E+00 0. -1.
          6    1    1    2  501    0 -0.38202753789E+02 -0.25476865221E+02 -0.73459063728E+02  0.19347804811E+03  0.17300000000E+03 0. -1.
         -6    1    1    2    0  502  0.38202753789E+02  0.25476865221E+02  0.48285480858E+02  0.18538880419E+03  0.17300000000E+03 0. -1.
<mgrwt>
<rscale>  2 0.17899028E+03</rscale>
<asrwt>0</asrwt>
<pdfrwt beam="1">  1       21 0.27207175E-01 0.17899028E+03</pdfrwt>
<pdfrwt beam="2">  1       21 0.31080033E-01 0.17899028E+03</pdfrwt>
<totfact> 0.12867409E+05</totfact>
</mgrwt>
</event>
<event>
 4    1  0.4349106E+000  0.2971167E+03  0.7546771E-02  0.1086691E+00
         21   -1    0    0  503  502  0.00000000000E+00  0.00000000000E+00  0.68253673843E+03  0.68253673843E+03  0.00000000000E+00 0.  1.
         21   -1    0    0  501  503 -0.00000000000E+00 -0.00000000000E+00 -0.58885190855E+03  0.58885190855E+03  0.00000000000E+00 0. -1.
          6    1    1    2  501    0 -0.23286622912E+03 -0.64207735369E+02 -0.51471524965E+03  0.59431481739E+03  0.17300000000E+03 0. -1.
         -6    1    1    2    0  502  0.23286622912E+03  0.64207735369E+02  0.60840007953E+03  0.67707382959E+03  0.17300000000E+03 0.  1.
<mgrwt>
<rscale>  2 0.29711667E+03</rscale>
<asrwt>0</asrwt>
<pdfrwt beam="1">  1       21 0.10500565E+00 0.29711667E+03</pdfrwt>
<pdfrwt beam="2">  1       21 0.90592602E-01 0.29711667E+03</pdfrwt>
<totfact> 0.69124484E+02</totfact>
</mgrwt>
</event>
<event>
 4    1  0.4349106E+000  0.2120103E+03  0.7546771E-02  0.1139984E+00
         21   -1    0    0  503  502  0.00000000000E+00  0.00000000000E+00  0.32087245785E+03  0.32087245785E+03  0.00000000000E+00 0. -1.
         21   -1    0    0  501  503 -0.00000000000E+00 -0.00000000000E+00 -0.19512709456E+03  0.19512709456E+03  0.00000000000E+00 0. -1.
          6    1    1    2  501    0  0.10044013735E+03 -0.70222152916E+02 -0.74158966185E+02  0.22460615356E+03  0.17300000000E+03 0. -1.
         -6    1    1    2    0  502 -0.10044013735E+03  0.70222152916E+02  0.19990432947E+03  0.29139339885E+03  0.17300000000E+03 0. -1.
<mgrwt>
<rscale>  2 0.21201031E+03</rscale>
<asrwt>0</asrwt>
<pdfrwt beam="1">  1       21 0.49364993E-01 0.21201031E+03</pdfrwt>
<pdfrwt beam="2">  1       21 0.30019553E-01 0.21201031E+03</pdfrwt>
<totfact> 0.41242280E+04</totfact>
</mgrwt>
</event>
<event>
 4    1  0.4349106E+000  0.1924570E+03  0.7546771E-02  0.1156264E+00
         21   -1    0    0  503  502  0.00000000000E+00  0.00000000000E+00  0.60609814793E+03  0.60609814793E+03  0.00000000000E+00 0. -1.
         21   -1    0    0  501  503 -0.00000000000E+00 -0.00000000000E+00 -0.36467040349E+03  0.36467040349E+03  0.00000000000E+00 0.  1.
          6    1    1    2  501    0 -0.81096317246E+02  0.23110031602E+02 -0.32213627274E+03  0.37524853690E+03  0.17300000000E+03 0.  1.
         -6    1    1    2    0  502  0.81096317246E+02 -0.23110031602E+02  0.56356401718E+03  0.59552001451E+03  0.17300000000E+03 0. -1.
<mgrwt>
<rscale>  2 0.19245697E+03</rscale>
<asrwt>0</asrwt>
<pdfrwt beam="1">  1       21 0.93245869E-01 0.19245697E+03</pdfrwt>
<pdfrwt beam="2">  1       21 0.56103139E-01 0.19245697E+03</pdfrwt>
<totfact> 0.28943423E+03</totfact>
</mgrwt>
</event>
<event>
 4    1  0.4349106E+000  0.2388427E+03  0.7546771E-02  0.1120566E+00
         21   -1    0    0  503  502  0.00000000000E+00  0.00000000000E+00  0.21256687594E+03  0.21256687594E+03  0.00000000000E+00 0. -1.
         21   -1    0    0  501  503 -0.00000000000E+00 -0.00000000000E+00 -0.49452230301E+03  0.49452230301E+03  0.00000000000E+00 0. -1.
          6    1    1    2  501    0  0.52559730319E+02  0.15605868937E+03 -0.38006422259E+03  0.44888155796E+03  0.17300000000E+03 0. -1.
         -6    1    1    2    0  502 -0.52559730319E+02 -0.15605868937E+03  0.98108795527E+02  0.25820762099E+03  0.17300000000E+03 0. -1.
<mgrwt>
<rscale>  2 0.23884271E+03</rscale>
<asrwt>0</asrwt>
<pdfrwt beam="1">  1       21 0.32702597E-01 0.23884271E+03</pdfrwt>
<pdfrwt beam="2">  1       21 0.76080353E-01 0.23884271E+03</pdfrwt>
<totfact> 0.13473999E+04</totfact>
</mgrwt>
</event>
<event>
 4    1  0.4349106E+000  0.1836407E+03  0.7546771E-02  0.1164325E+00
         21   -1    0    0  503  502  0.00000000000E+00  0.00000000000E+00  0.26477988370E+03  0.26477988370E+03  0.00000000000E+00 0.  1.
         21   -1    0    0  501  503 -0.00000000000E+00 -0.00000000000E+00 -0.37439394327E+03  0.37439394327E+03  0.00000000000E+00 0.  1.
          6    1    1    2  501    0 -0.57118406923E+02  0.23073698377E+02 -0.31440289841E+03  0.36410587814E+03  0.17300000000E+03 0.  1.
         -6    1    1    2    0  502  0.57118406923E+02 -0.23073698377E+02  0.20478883884E+03  0.27506794884E+03  0.17300000000E+03 0.  1.
<mgrwt>
<rscale>  2 0.18364070E+03</rscale>
<asrwt>0</asrwt>
<pdfrwt beam="1">  1       21 0.40735367E-01 0.18364070E+03</pdfrwt>
<pdfrwt beam="2">  1       21 0.57599068E-01 0.18364070E+03</pdfrwt>
<totfact> 0.16509188E+04</totfact>
</mgrwt>
</event>
<event>
 4    1  0.4349106E+000  0.1892247E+03  0.7546771E-02  0.1159162E+00
         21   -1    0    0  501  502  0.00000000000E+00  0.00000000000E+00  0.73467189511E+02  0.73467189511E+02  0.00000000000E+00 0. -1.
         21   -1    0    0  502  503 -0.00000000000E+00 -0.00000000000E+00 -0.48810768496E+03  0.48810768496E+03  0.00000000000E+00 0. -1.
          6    1    1    2  501    0 -0.21158033231E+02 -0.73683874727E+02 -0.19643184194E+03  0.27274795012E+03  0.17300000000E+03 0. -1.
         -6    1    1    2    0  503  0.21158033231E+02  0.73683874727E+02 -0.21820865350E+03  0.28882692435E+03  0.17300000000E+03 0. -1.
<mgrwt>
<rscale>  2 0.18922467E+03</rscale>
<asrwt>0</asrwt>
<pdfrwt beam="1">  1       21 0.11302645E-01 0.18922467E+03</pdfrwt>
<pdfrwt beam="2">  1       21 0.75093489E-01 0.18922467E+03</pdfrwt>
<totfact> 0.10367436E+05</totfact>
</mgrwt>
</event>
<event>
 4    1  0.4349106E+000  0.1874496E+03  0.7546771E-02  0.1160782E+00
         21   -1    0    0  503  502  0.00000000000E+00  0.00000000000E+00  0.47098963086E+03  0.47098963086E+03  0.00000000000E+00 0.  1.
         21   -1    0    0  501  503 -0.00000000000E+00 -0.00000000000E+00 -0.59126656517E+03  0.59126656517E+03  0.00000000000E+00 0.  1.
          6    1    1    2  501    0  0.60766095738E+01 -0.71912657510E+02 -0.55662952539E+03  0.58734468928E+03  0.17300000000E+03 0.  1.
         -6    1    1    2    0  502 -0.60766095738E+01  0.71912657510E+02  0.43635259108E+03  0.47491150674E+03  0.17300000000E+03 0.  1.
<mgrwt>
<rscale>  2 0.18744961E+03</rscale>
<asrwt>0</asrwt>
<pdfrwt beam="1">  1       21 0.72459943E-01 0.18744961E+03</pdfrwt>
<pdfrwt beam="2">  1       21 0.90964087E-01 0.18744961E+03</pdfrwt>
<totfact> 0.17681000E+03</totfact>
</mgrwt>
</event>
<event>
 4    1  0.4349106E+000  0.1896284E+03  0.7546771E-02  0.1158797E+00
         21   -1    0    0  503  502  0.00000000000E+00  0.00000000000E+00  0.47909696122E+03  0.47909696122E+03  0.00000000000E+00 0. -1.
         21   -1    0    0  501  503 -0.00000000000E+00 -0.00000000000E+00 -0.77690635568E+02  0.77690635568E+02  0.00000000000E+00 0.  1.
          6    1    1    2  501    0 -0.30307116789E+02 -0.71494177791E+02  0.25197318303E+03  0.31535602698E+03  0.17300000000E+03 0. -1.
         -6    1    1    2    0  502  0.30307116789E+02  0.71494177791E+02  0.14943314262E+03  0.24143156981E+03  0.17300000000E+03 0.  1.
<mgrwt>
<rscale>  2 0.18962842E+03</rscale>
<asrwt>0</asrwt>
<pdfrwt beam="1">  1       21 0.73707223E-01 0.18962842E+03</pdfrwt>
<pdfrwt beam="2">  1       21 0.11952406E-01 0.18962842E+03</pdfrwt>
<totfact> 0.97796690E+04</totfact>
</mgrwt>
</event>
<event>
 4    1  0.4349106E+000  0.1883147E+03  0.7546771E-02  0.1159990E+00
         21   -1    0    0  501  502  0.00000000000E+00  0.00000000000E+00  0.10663633137E+03  0.10663633137E+03  0.00000000000E+00 0.  1.
         21   -1    0    0  502  503 -0.00000000000E+00 -0.00000000000E+00 -0.76906797991E+03  0.76906797991E+03  0.00000000000E+00 0.  1.
          6    1    1    2  501    0 -0.74349485896E+02  0.23653326817E+01 -0.13451345751E+01  0.18831954290E+03  0.17300000000E+03 0.  1.
         -6    1    1    2    0  503  0.74349485896E+02 -0.23653326817E+01 -0.66108651397E+03  0.68738476838E+03  0.17300000000E+03 0.  1.
<mgrwt>
<rscale>  2 0.18831474E+03</rscale>
<asrwt>0</asrwt>
<pdfrwt beam="1">  1       21 0.16405590E-01 0.18831474E+03</pdfrwt>
<pdfrwt beam="2">  1       21 0.11831815E+00 0.18831474E+03</pdfrwt>
<totfact> 0.18264666E+04</totfact>
</mgrwt>
</event>
<event>
 4    1  0.4349106E+000  0.2186024E+03  0.7546771E-02  0.1134929E+00
         21   -1    0    0  501  502  0.00000000000E+00  0.00000000000E+00  0.24795291199E+03  0.24795291199E+03  0.00000000000E+00 0.  1.
         21   -1    0    0  502  503 -0.00000000000E+00 -0.00000000000E+00 -0.51479601352E+03  0.51479601352E+03  0.00000000000E+00 0. -1.
          6    1    1    2  501    0  0.15321856619E+02 -0.13275266607E+03  0.16823239664E+03  0.27584265246E+03  0.17300000000E+03 0.  1.
         -6    1    1    2    0  503 -0.15321856619E+02  0.13275266607E+03 -0.43507549816E+03  0.48690627305E+03  0.17300000000E+03 0. -1.
<mgrwt>
<rscale>  2 0.21860245E+03</rscale>
<asrwt>0</asrwt>
<pdfrwt beam="1">  1       21 0.38146603E-01 0.21860245E+03</pdfrwt>
<pdfrwt beam="2">  1       21 0.79199385E-01 0.21860245E+03</pdfrwt>
<totfact> 0.91602002E+03</totfact>
</mgrwt>
</event>
<event>
 4    1  0.4349106E+000  0.1956622E+03  0.7546771E-02  0.1153451E+00
         21   -1    0    0  501  502  0.00000000000E+00  0.00000000000E+00  0.11072996488E+04  0.11072996488E+04  0.00000000000E+00 0. -1.
         21   -1    0    0  502  503 -0.00000000000E+00 -0.00000000000E+00 -0.72874938175E+02  0.72874938175E+02  0.00000000000E+00 0.  1.
          6    1    1    2  501    0  0.57764058585E+02 -0.70837873343E+02  0.94500401798E+03  0.96504729665E+03  0.17300000000E+03 0. -1.
         -6    1    1    2    0  503 -0.57764058585E+02  0.70837873343E+02  0.89420692616E+02  0.21512729030E+03  0.17300000000E+03 0.  1.
<mgrwt>
<rscale>  2 0.19566219E+03</rscale>
<asrwt>0</asrwt>
<pdfrwt beam="1">  1       21 0.17035378E+00 0.19566219E+03</pdfrwt>
<pdfrwt beam="2">  1       21 0.11211530E-01 0.19566219E+03</pdfrwt>
<totfact> 0.14024225E+04</totfact>
</mgrwt>
</event>
<event>
 4    1  0.4349106E+000  0.2585779E+03  0.7546771E-02  0.1108001E+00
         21   -1    0    0  501  502  0.00000000000E+00  0.00000000000E+00  0.71916434042E+03  0.71916434042E+03  0.00000000000E+00 0.  1.
         21   -1    0    0  502  503 -0.00000000000E+00 -0.00000000000E+00 -0.17880544129E+03  0.17880544129E+03  0.00000000000E+00 0. -1.
          6    1    1    2  501    0 -0.86273986467E+01 -0.19198725041E+03  0.58125670178E+03  0.63617756145E+03  0.17300000000E+03 0.  1.
         -6    1    1    2    0  503  0.86273986467E+01  0.19198725041E+03 -0.40897802654E+02  0.26179222026E+03  0.17300000000E+03 0. -1.
<mgrwt>
<rscale>  2 0.25857791E+03</rscale>
<asrwt>0</asrwt>
<pdfrwt beam="1">  1       21 0.11064067E+00 0.25857791E+03</pdfrwt>
<pdfrwt beam="2">  1       21 0.27508530E-01 0.25857791E+03</pdfrwt>
<totfact> 0.77734679E+03</totfact>
</mgrwt>
</event>
<event>
 4    1  0.4349106E+000  0.2074719E+03  0.7546771E-02  0.1143584E+00
         21   -1    0    0  501  502  0.00000000000E+00  0.00000000000E+00  0.11806184604E+03  0.11806184604E+03  0.00000000000E+00 0. -1.
         21   -1    0    0  502  503 -0.00000000000E+00 -0.00000000000E+00 -0.37248272499E+03  0.37248272499E+03  0.00000000000E+00 0. -1.
          6    1    1    2  501    0  0.15900940994E+02  0.11341397540E+03 -0.16290609495E+03  0.26378583266E+03  0.17300000000E+03 0. -1.
         -6    1    1    2    0  503 -0.15900940994E+02 -0.11341397540E+03 -0.91514784000E+02  0.22675873838E+03  0.17300000000E+03 0. -1.
<mgrwt>
<rscale>  2 0.20747185E+03</rscale>
<asrwt>0</asrwt>
<pdfrwt beam="1">  1       21 0.18163361E-01 0.20747185E+03</pdfrwt>
<pdfrwt beam="2">  1       21 0.57305034E-01 0.20747185E+03</pdfrwt>
<totfact> 0.78428323E+04</totfact>
</mgrwt>
</event>
<event>
 4    1  0.4349106E+000  0.2364188E+03  0.7546771E-02  0.1122202E+00
         21   -1    0    0  501  502  0.00000000000E+00  0.00000000000E+00  0.10438375750E+03  0.10438375750E+03  0.00000000000E+00 0. -1.
         21   -1    0    0  502  503 -0.00000000000E+00 -0.00000000000E+00 -0.66740006129E+03  0.66740006129E+03  0.00000000000E+00 0. -1.
          6    1    1    2  501    0 -0.42918037036E+02  0.15531550539E+03 -0.10993377879E+03  0.26072840243E+03  0.17300000000E+03 0. -1.
         -6    1    1    2    0  503  0.42918037036E+02 -0.15531550539E+03 -0.45308252500E+03  0.51105541635E+03  0.17300000000E+03 0. -1.
<mgrwt>
<rscale>  2 0.23641883E+03</rscale>
<asrwt>0</asrwt>
<pdfrwt beam="1">  1       21 0.16059040E-01 0.23641883E+03</pdfrwt>
<pdfrwt beam="2">  1       21 0.10267693E+00 0.23641883E+03</pdfrwt>
<totfact> 0.26057190E+04</totfact>
</mgrwt>
</event>
<event>
 4    1  0.4349106E+000  0.1892427E+03  0.7546771E-02  0.1159146E+00
         21   -1    0    0  501  502  0.00000000000E+00  0.00000000000E+00  0.11955999809E+03  0.11955999809E+03  0.00000000000E+00 0.  1.
         21   -1    0    0  502  503 -0.00000000000E+00 -0.00000000000E+00 -0.29955494670E+03  0.29955494670E+03  0.00000000000E+00 0.  1.
          6    1    1    2  501    0 -0.65056506515E+02 -0.40637930531E+02 -0.91562837560E+02  0.21022974019E+03  0.17300000000E+03 0.  1.
         -6    1    1    2    0  503  0.65056506515E+02  0.40637930531E+02 -0.88432111049E+02  0.20888520460E+03  0.17300000000E+03 0.  1.
<mgrwt>
<rscale>  2 0.18924268E+03</rscale>
<asrwt>0</asrwt>
<pdfrwt beam="1">  1       21 0.18393846E-01 0.18924268E+03</pdfrwt>
<pdfrwt beam="2">  1       21 0.46085376E-01 0.18924268E+03</pdfrwt>
<totfact> 0.12184986E+05</totfact>
</mgrwt>
</event>
<event>
 4    1  0.4349106E+000  0.2989131E+03  0.7546771E-02  0.1085785E+00
         21   -1    0    0  503  502  0.00000000000E+00  0.00000000000E+00  0.18937914116E+03  0.18937914116E+03  0.00000000000E+00 0.  1.
         21   -1    0    0  501  503 -0.00000000000E+00 -0.00000000000E+00 -0.47692060409E+03  0.47692060409E+03  0.00000000000E+00 0.  1.
          6    1    1    2  501    0  0.23200376750E+03 -0.74794977349E+02 -0.17829198991E+03  0.34804751176E+03  0.17300000000E+03 0.  1.
         -6    1    1    2    0  502 -0.23200376750E+03  0.74794977349E+02 -0.10924947302E+03  0.31825223350E+03  0.17300000000E+03 0.  1.
<mgrwt>
<rscale>  2 0.29891309E+03</rscale>
<asrwt>0</asrwt>
<pdfrwt beam="1">  1       21 0.29135253E-01 0.29891309E+03</pdfrwt>
<pdfrwt beam="2">  1       21 0.73372400E-01 0.29891309E+03</pdfrwt>
<totfact> 0.17840922E+04</totfact>
</mgrwt>
</event>
<event>
 4    1  0.4349106E+000  0.1906567E+03  0.7546771E-02  0.1157870E+00
         21   -1    0    0  501  502  0.00000000000E+00  0.00000000000E+00  0.70563896955E+02  0.70563896955E+02  0.00000000000E+00 0. -1.
         21   -1    0    0  502  503 -0.00000000000E+00 -0.00000000000E+00 -0.53025396886E+03  0.53025396886E+03  0.00000000000E+00 0. -1.
          6    1    1    2  501    0 -0.37179291767E+02 -0.70983510566E+02 -0.17911948361E+03  0.26159844785E+03  0.17300000000E+03 0. -1.
         -6    1    1    2    0  503  0.37179291767E+02  0.70983510566E+02 -0.28057058830E+03  0.33921941797E+03  0.17300000000E+03 0. -1.
<mgrwt>
<rscale>  2 0.19065665E+03</rscale>
<asrwt>0</asrwt>
<pdfrwt beam="1">  1       21 0.10855984E-01 0.19065665E+03</pdfrwt>
<pdfrwt beam="2">  1       21 0.81577535E-01 0.19065665E+03</pdfrwt>
<totfact> 0.92394933E+04</totfact>
</mgrwt>
</event>
<event>
 4    1  0.4349106E+000  0.2009212E+03  0.7546771E-02  0.1148964E+00
         21   -1    0    0  503  502  0.00000000000E+00  0.00000000000E+00  0.66063872796E+03  0.66063872796E+03  0.00000000000E+00 0. -1.
         21   -1    0    0  501  503 -0.00000000000E+00 -0.00000000000E+00 -0.21118443491E+03  0.21118443491E+03  0.00000000000E+00 0. -1.
          6    1    1    2  501    0  0.10042784552E+03 -0.18830013343E+02 -0.14274622568E+03  0.24646664380E+03  0.17300000000E+03 0. -1.
         -6    1    1    2    0  502 -0.10042784552E+03  0.18830013343E+02  0.59220051873E+03  0.62535651907E+03  0.17300000000E+03 0. -1.
<mgrwt>
<rscale>  2 0.20092118E+03</rscale>
<asrwt>0</asrwt>
<pdfrwt beam="1">  1       21 0.10163673E+00 0.20092118E+03</pdfrwt>
<pdfrwt beam="2">  1       21 0.32489913E-01 0.20092118E+03</pdfrwt>
<totfact> 0.71555844E+03</totfact>
</mgrwt>
</event>
<event>
 4    1  0.4349106E+000  0.2005410E+03  0.7546771E-02  0.1149283E+00
         21   -1    0    0  503  502  0.00000000000E+00  0.00000000000E+00  0.89391837831E+02  0.89391837831E+02  0.00000000000E+00 0.  1.
         21   -1    0    0  501  503 -0.00000000000E+00 -0.00000000000E+00 -0.49367770208E+03  0.49367770208E+03  0.00000000000E+00 0.  1.
          6    1    1    2  501    0  0.10140066500E+03 -0.23632284276E+01 -0.11532001515E+03  0.23133392662E+03  0.17300000000E+03 0. -1.
         -6    1    1    2    0  502 -0.10140066500E+03  0.23632284276E+01 -0.28896584910E+03  0.35173561329E+03  0.17300000000E+03 0. -1.
<mgrwt>
<rscale>  2 0.20054097E+03</rscale>
<asrwt>0</asrwt>
<pdfrwt beam="1">  1       21 0.13752591E-01 0.20054097E+03</pdfrwt>
<pdfrwt beam="2">  1       21 0.75950415E-01 0.20054097E+03</pdfrwt>
<totfact> 0.70730856E+04</totfact>
</mgrwt>
</event>
<event>
 4    1  0.4349106E+000  0.2315850E+03  0.7546771E-02  0.1125529E+00
         21   -1    0    0  501  502  0.00000000000E+00  0.00000000000E+00  0.33506764494E+03  0.33506764494E+03  0.00000000000E+00 0.  1.
         21   -1    0    0  502  503 -0.00000000000E+00 -0.00000000000E+00 -0.16013148019E+03  0.16013148019E+03  0.00000000000E+00 0.  1.
          6    1    1    2  501    0  0.14262978358E+03 -0.57960005369E+02  0.82312765507E+02  0.24577837324E+03  0.17300000000E+03 0.  1.
         -6    1    1    2    0  503 -0.14262978358E+03  0.57960005369E+02  0.92623399245E+02  0.24942075189E+03  0.17300000000E+03 0.  1.
<mgrwt>
<rscale>  2 0.23158501E+03</rscale>
<asrwt>0</asrwt>
<pdfrwt beam="1">  1       21 0.51548868E-01 0.23158501E+03</pdfrwt>
<pdfrwt beam="2">  1       21 0.24635612E-01 0.23158501E+03</pdfrwt>
<totfact> 0.54714786E+04</totfact>
</mgrwt>
</event>
<event>
 4    1  0.4349106E+000  0.2380002E+03  0.7546771E-02  0.1121132E+00
         21   -1    0    0  503  502  0.00000000000E+00  0.00000000000E+00  0.10745582604E+03  0.10745582604E+03  0.00000000000E+00 0. -1.
         21   -1    0    0  501  503 -0.00000000000E+00 -0.00000000000E+00 -0.89611850434E+03  0.89611850434E+03  0.00000000000E+00 0. -1.
          6    1    1    2  501    0  0.42170572540E+02 -0.15791365520E+03 -0.71631836253E+03  0.75482188375E+03  0.17300000000E+03 0. -1.
         -6    1    1    2    0  502 -0.42170572540E+02  0.15791365520E+03 -0.72344315773E+02  0.24875244664E+03  0.17300000000E+03 0. -1.
<mgrwt>
<rscale>  2 0.23800017E+03</rscale>
<asrwt>0</asrwt>
<pdfrwt beam="1">  1       21 0.16531666E-01 0.23800017E+03</pdfrwt>
<pdfrwt beam="2">  1       21 0.13786439E+00 0.23800017E+03</pdfrwt>
<totfact> 0.11860613E+04</totfact>
</mgrwt>
</event>
<event>
 4    1  0.4349106E+000  0.2847289E+03  0.7546771E-02  0.1093134E+00
         21   -1    0    0  501  502  0.00000000000E+00  0.00000000000E+00  0.20611248330E+03  0.20611248330E+03  0.00000000000E+00 0.  1.
         21   -1    0    0  502  503 -0.00000000000E+00 -0.00000000000E+00 -0.73733041162E+03  0.73733041162E+03  0.00000000000E+00 0. -1.
          6    1    1    2  501    0 -0.17075683760E+03  0.14826890245E+03  0.56596560552E+02  0.29029938975E+03  0.17300000000E+03 0.  1.
         -6    1    1    2    0  503  0.17075683760E+03 -0.14826890245E+03 -0.58781448887E+03  0.65314350517E+03  0.17300000000E+03 0. -1.
<mgrwt>
<rscale>  2 0.28472893E+03</rscale>
<asrwt>0</asrwt>
<pdfrwt beam="1">  1       21 0.31709613E-01 0.28472893E+03</pdfrwt>
<pdfrwt beam="2">  1       21 0.11343545E+00 0.28472893E+03</pdfrwt>
<totfact> 0.54525652E+03</totfact>
</mgrwt>
</event>
<event>
 4    1  0.4349106E+000  0.2279425E+03  0.7546771E-02  0.1128096E+00
         21   -1    0    0  501  502  0.00000000000E+00  0.00000000000E+00  0.54185634147E+03  0.54185634147E+03  0.00000000000E+00 0. -1.
         21   -1    0    0  502  503 -0.00000000000E+00 -0.00000000000E+00 -0.11742806635E+03  0.11742806635E+03  0.00000000000E+00 0.  1.
          6    1    1    2  501    0 -0.14189709381E+03  0.43520064573E+02  0.71033373396E+02  0.23875410235E+03  0.17300000000E+03 0. -1.
         -6    1    1    2    0  503  0.14189709381E+03 -0.43520064573E+02  0.35339490172E+03  0.42053030547E+03  0.17300000000E+03 0. -1.
<mgrwt>
<rscale>  2 0.22794250E+03</rscale>
<asrwt>0</asrwt>
<pdfrwt beam="1">  1       21 0.83362513E-01 0.22794250E+03</pdfrwt>
<pdfrwt beam="2">  1       21 0.18065857E-01 0.22794250E+03</pdfrwt>
<totfact> 0.34296121E+04</totfact>
</mgrwt>
</event>
<event>
 4    1  0.4349106E+000  0.1776252E+03  0.7546771E-02  0.1170121E+00
         21   -1    0    0  501  502  0.00000000000E+00  0.00000000000E+00  0.57800807279E+02  0.57800807279E+02  0.00000000000E+00 0. -1.
         21   -1    0    0  502  503 -0.00000000000E+00 -0.00000000000E+00 -0.68330346915E+03  0.68330346915E+03  0.00000000000E+00 0.  1.
          6    1    1    2  501    0 -0.38363914880E+02 -0.12244764010E+02 -0.14655701491E+03  0.23028174663E+03  0.17300000000E+03 0. -1.
         -6    1    1    2    0  503  0.38363914880E+02  0.12244764010E+02 -0.47894564696E+03  0.51082252980E+03  0.17300000000E+03 0.  1.
<mgrwt>
<rscale>  2 0.17762524E+03</rscale>
<asrwt>0</asrwt>
<pdfrwt beam="1">  1       21 0.88924317E-02 0.17762524E+03</pdfrwt>
<pdfrwt beam="2">  1       21 0.10512361E+00 0.17762524E+03</pdfrwt>
<totfact> 0.73185090E+04</totfact>
</mgrwt>
</event>
<event>
 4    1  0.4349106E+000  0.1891016E+03  0.7546771E-02  0.1159274E+00
         21   -1    0    0  503  502  0.00000000000E+00  0.00000000000E+00  0.12492774940E+03  0.12492774940E+03  0.00000000000E+00 0.  1.
         21   -1    0    0  501  503 -0.00000000000E+00 -0.00000000000E+00 -0.30456374656E+03  0.30456374656E+03  0.00000000000E+00 0.  1.
          6    1    1    2  501    0 -0.12640680456E+02  0.75303638264E+02 -0.14249033424E+03  0.23677609696E+03  0.17300000000E+03 0.  1.
         -6    1    1    2    0  502  0.12640680456E+02 -0.75303638264E+02 -0.37145662913E+02  0.19271539900E+03  0.17300000000E+03 0.  1.
<mgrwt>
<rscale>  2 0.18910163E+03</rscale>
<asrwt>0</asrwt>
<pdfrwt beam="1">  1       21 0.19219654E-01 0.18910163E+03</pdfrwt>
<pdfrwt beam="2">  1       21 0.46855960E-01 0.18910163E+03</pdfrwt>
<totfact> 0.10854190E+05</totfact>
</mgrwt>
</event>
<event>
 4    1  0.4349106E+000  0.1913611E+03  0.7546771E-02  0.1157239E+00
         21   -1    0    0  501  502  0.00000000000E+00  0.00000000000E+00  0.13049506347E+03  0.13049506347E+03  0.00000000000E+00 0.  1.
         21   -1    0    0  502  503 -0.00000000000E+00 -0.00000000000E+00 -0.47713491026E+03  0.47713491026E+03  0.00000000000E+00 0.  1.
          6    1    1    2  501    0  0.62980905928E+02  0.52187101862E+02  0.21660068148E+02  0.19258309029E+03  0.17300000000E+03 0.  1.
         -6    1    1    2    0  503 -0.62980905928E+02 -0.52187101862E+02 -0.36829991494E+03  0.41504688344E+03  0.17300000000E+03 0.  1.
<mgrwt>
<rscale>  2 0.19136115E+03</rscale>
<asrwt>0</asrwt>
<pdfrwt beam="1">  1       21 0.20076163E-01 0.19136115E+03</pdfrwt>
<pdfrwt beam="2">  1       21 0.73405372E-01 0.19136115E+03</pdfrwt>
<totfact> 0.38255032E+04</totfact>
</mgrwt>
</event>
<event>
 4    1  0.4349106E+000  0.1987595E+03  0.7546771E-02  0.1150790E+00
         21   -1    0    0  503  502  0.00000000000E+00  0.00000000000E+00  0.20615093487E+03  0.20615093487E+03  0.00000000000E+00 0. -1.
         21   -1    0    0  501  503 -0.00000000000E+00 -0.00000000000E+00 -0.37411813674E+03  0.37411813674E+03  0.00000000000E+00 0. -1.
          6    1    1    2  501    0  0.97799670454E+02 -0.34017485165E+01 -0.28661588913E+03  0.34878935668E+03  0.17300000000E+03 0. -1.
         -6    1    1    2    0  502 -0.97799670454E+02  0.34017485165E+01  0.11864868726E+03  0.23147971493E+03  0.17300000000E+03 0. -1.
<mgrwt>
<rscale>  2 0.19875952E+03</rscale>
<asrwt>0</asrwt>
<pdfrwt beam="1">  1       21 0.31715529E-01 0.19875952E+03</pdfrwt>
<pdfrwt beam="2">  1       21 0.57556636E-01 0.19875952E+03</pdfrwt>
<totfact> 0.26978721E+04</totfact>
</mgrwt>
</event>
<event>
 4    1  0.4349106E+000  0.1988910E+03  0.7546771E-02  0.1150678E+00
         21   -1    0    0  503  502  0.00000000000E+00  0.00000000000E+00  0.33044439842E+02  0.33044439842E+02  0.00000000000E+00 0.  1.
         21   -1    0    0  501  503 -0.00000000000E+00 -0.00000000000E+00 -0.16586055073E+04  0.16586055073E+04  0.00000000000E+00 0.  1.
          6    1    1    2  501    0 -0.72062298696E+02  0.66600846656E+02 -0.12589453077E+04  0.12745591141E+04  0.17300000000E+03 0.  1.
         -6    1    1    2    0  502  0.72062298696E+02 -0.66600846656E+02 -0.36661575977E+03  0.41709083301E+03  0.17300000000E+03 0.  1.
<mgrwt>
<rscale>  2 0.19889104E+03</rscale>
<asrwt>0</asrwt>
<pdfrwt beam="1">  1       21 0.50837590E-02 0.19889104E+03</pdfrwt>
<pdfrwt beam="2">  1       21 0.25517013E+00 0.19889104E+03</pdfrwt>
<totfact> 0.16124537E+04</totfact>
</mgrwt>
</event>
<event>
 4    1  0.4349106E+000  0.1764825E+03  0.7546771E-02  0.1171251E+00
         21   -1    0    0  503  502  0.00000000000E+00  0.00000000000E+00  0.14087417774E+04  0.14087417774E+04  0.00000000000E+00 0. -1.
         21   -1    0    0  501  503 -0.00000000000E+00 -0.00000000000E+00 -0.31545249078E+02  0.31545249078E+02  0.00000000000E+00 0. -1.
          6    1    1    2  501    0  0.13496895010E+02  0.32169745442E+02  0.29473205767E+03  0.34353026725E+03  0.17300000000E+03 0. -1.
         -6    1    1    2    0  502 -0.13496895010E+02 -0.32169745442E+02  0.10824644706E+04  0.10967567592E+04  0.17300000000E+03 0. -1.
<mgrwt>
<rscale>  2 0.17648246E+03</rscale>
<asrwt>0</asrwt>
<pdfrwt beam="1">  1       21 0.21672946E+00 0.17648246E+03</pdfrwt>
<pdfrwt beam="2">  1       21 0.48531163E-02 0.17648246E+03</pdfrwt>
<totfact> 0.30184043E+04</totfact>
</mgrwt>
</event>
<event>
 4    1  0.4349106E+000  0.2215263E+03  0.7546771E-02  0.1132750E+00
         21   -1    0    0  503  502  0.00000000000E+00  0.00000000000E+00  0.44332877299E+02  0.44332877299E+02  0.00000000000E+00 0. -1.
         21   -1    0    0  501  503 -0.00000000000E+00 -0.00000000000E+00 -0.11628194915E+04  0.11628194915E+04  0.00000000000E+00 0.  1.
          6    1    1    2  501    0 -0.94470603823E+02 -0.10109494562E+03 -0.69155492337E+03  0.72616946717E+03  0.17300000000E+03 0. -1.
         -6    1    1    2    0  502  0.94470603823E+02  0.10109494562E+03 -0.42693169080E+03  0.48098290160E+03  0.17300000000E+03 0.  1.
<mgrwt>
<rscale>  2 0.22152626E+03</rscale>
<asrwt>0</asrwt>
<pdfrwt beam="1">  1       21 0.68204425E-02 0.22152626E+03</pdfrwt>
<pdfrwt beam="2">  1       21 0.17889531E+00 0.22152626E+03</pdfrwt>
<totfact> 0.28742029E+04</totfact>
</mgrwt>
</event>
<event>
 4    1  0.4349106E+000  0.1992459E+03  0.7546771E-02  0.1150377E+00
         21   -1    0    0  501  502  0.00000000000E+00  0.00000000000E+00  0.19914099802E+03  0.19914099802E+03  0.00000000000E+00 0. -1.
         21   -1    0    0  502  503 -0.00000000000E+00 -0.00000000000E+00 -0.15805580806E+04  0.15805580806E+04  0.00000000000E+00 0. -1.
          6    1    1    2  501    0 -0.62489880909E+02  0.76582930052E+02  0.14113331516E+03  0.24416703921E+03  0.17300000000E+03 0. -1.
         -6    1    1    2    0  503  0.62489880909E+02 -0.76582930052E+02 -0.15225503977E+04  0.15355320394E+04  0.17300000000E+03 0. -1.
<mgrwt>
<rscale>  2 0.19924590E+03</rscale>
<asrwt>0</asrwt>
<pdfrwt beam="1">  1       21 0.30637077E-01 0.19924590E+03</pdfrwt>
<pdfrwt beam="2">  1       21 0.24316278E+00 0.19924590E+03</pdfrwt>
<totfact> 0.74021425E+02</totfact>
</mgrwt>
</event>
<event>
 4    1  0.4349106E+000  0.1758194E+03  0.7546771E-02  0.1171911E+00
         21   -1    0    0  503  502  0.00000000000E+00  0.00000000000E+00  0.87699446048E+03  0.87699446048E+03  0.00000000000E+00 0. -1.
         21   -1    0    0  501  503 -0.00000000000E+00 -0.00000000000E+00 -0.38392854022E+02  0.38392854022E+02  0.00000000000E+00 0. -1.
          6    1    1    2  501    0 -0.31354817308E+02 -0.58740657593E+00  0.28831125493E+03  0.33769194443E+03  0.17300000000E+03 0. -1.
         -6    1    1    2    0  502  0.31354817308E+02  0.58740657593E+00  0.55029035154E+03  0.57769537008E+03  0.17300000000E+03 0. -1.
<mgrwt>
<rscale>  2 0.17581942E+03</rscale>
<asrwt>0</asrwt>
<pdfrwt beam="1">  1       21 0.13492221E+00 0.17581942E+03</pdfrwt>
<pdfrwt beam="2">  1       21 0.59065936E-02 0.17581942E+03</pdfrwt>
<totfact> 0.80334897E+04</totfact>
</mgrwt>
</event>
<event>
 4    1  0.4349106E+000  0.1895301E+03  0.7546771E-02  0.1158886E+00
         21   -1    0    0  501  502  0.00000000000E+00  0.00000000000E+00  0.18428495450E+04  0.18428495450E+04  0.00000000000E+00 0.  1.
         21   -1    0    0  502  503 -0.00000000000E+00 -0.00000000000E+00 -0.20040825555E+02  0.20040825555E+02  0.00000000000E+00 0. -1.
          6    1    1    2  501    0 -0.40894081426E+02  0.65729180513E+02  0.75732698361E+03  0.78068291334E+03  0.17300000000E+03 0.  1.
         -6    1    1    2    0  503  0.40894081426E+02 -0.65729180513E+02  0.10654817358E+04  0.10822074572E+04  0.17300000000E+03 0. -1.
<mgrwt>
<rscale>  2 0.18953008E+03</rscale>
<asrwt>0</asrwt>
<pdfrwt beam="1">  1       21 0.28351518E+00 0.18953008E+03</pdfrwt>
<pdfrwt beam="2">  1       21 0.30832054E-02 0.18953008E+03</pdfrwt>
<totfact> 0.25759323E+04</totfact>
</mgrwt>
</event>
<event>
 4    1  0.4349106E+000  0.1798207E+03  0.7546771E-02  0.1167977E+00
         21   -1    0    0  501  502  0.00000000000E+00  0.00000000000E+00  0.12762026287E+03  0.12762026287E+03  0.00000000000E+00 0.  1.
         21   -1    0    0  502  503 -0.00000000000E+00 -0.00000000000E+00 -0.31093608938E+03  0.31093608938E+03  0.00000000000E+00 0.  1.
          6    1    1    2  501    0  0.24576762865E+02  0.42455333028E+02  0.26902728707E+01  0.17984079110E+03  0.17300000000E+03 0. -1.
         -6    1    1    2    0  503 -0.24576762865E+02 -0.42455333028E+02 -0.18600609938E+03  0.25871556115E+03  0.17300000000E+03 0. -1.
<mgrwt>
<rscale>  2 0.17982067E+03</rscale>
<asrwt>0</asrwt>
<pdfrwt beam="1">  1       21 0.19633887E-01 0.17982067E+03</pdfrwt>
<pdfrwt beam="2">  1       21 0.47836321E-01 0.17982067E+03</pdfrwt>
<totfact> 0.10029456E+05</totfact>
</mgrwt>
</event>
<event>
 4    1  0.4349106E+000  0.1830880E+03  0.7546771E-02  0.1164847E+00
         21   -1    0    0  503  502  0.00000000000E+00  0.00000000000E+00  0.13568077323E+03  0.13568077323E+03  0.00000000000E+00 0. -1.
         21   -1    0    0  501  503 -0.00000000000E+00 -0.00000000000E+00 -0.44779716153E+03  0.44779716153E+03  0.00000000000E+00 0. -1.
          6    1    1    2  501    0  0.24709203255E+02  0.54604741970E+02  0.39271475191E+02  0.18725242678E+03  0.17300000000E+03 0. -1.
         -6    1    1    2    0  502 -0.24709203255E+02 -0.54604741970E+02 -0.35138786348E+03  0.39622550798E+03  0.17300000000E+03 0. -1.
<mgrwt>
<rscale>  2 0.18308802E+03</rscale>
<asrwt>0</asrwt>
<pdfrwt beam="1">  1       21 0.20873965E-01 0.18308802E+03</pdfrwt>
<pdfrwt beam="2">  1       21 0.68891872E-01 0.18308802E+03</pdfrwt>
<totfact> 0.41088843E+04</totfact>
</mgrwt>
</event>
<event>
 4    1  0.4349106E+000  0.1878678E+03  0.7546771E-02  0.1160399E+00
         21   -1    0    0  501  502  0.00000000000E+00  0.00000000000E+00  0.10622890285E+03  0.10622890285E+03  0.00000000000E+00 0. -1.
         21   -1    0    0  502  503 -0.00000000000E+00 -0.00000000000E+00 -0.35428342120E+03  0.35428342120E+03  0.00000000000E+00 0. -1.
          6    1    1    2  501    0  0.68326214068E+02 -0.26397447805E+02 -0.18145220335E+03  0.26118805271E+03  0.17300000000E+03 0. -1.
         -6    1    1    2    0  503 -0.68326214068E+02  0.26397447805E+02 -0.66602315001E+02  0.19932427133E+03  0.17300000000E+03 0. -1.
<mgrwt>
<rscale>  2 0.18786776E+03</rscale>
<asrwt>0</asrwt>
<pdfrwt beam="1">  1       21 0.16342908E-01 0.18786776E+03</pdfrwt>
<pdfrwt beam="2">  1       21 0.54505141E-01 0.18786776E+03</pdfrwt>
<totfact> 0.10682411E+05</totfact>
</mgrwt>
</event>
<event>
 4    1  0.4349106E+000  0.1892963E+03  0.7546771E-02  0.1159098E+00
         21   -1    0    0  503  502  0.00000000000E+00  0.00000000000E+00  0.59528378979E+02  0.59528378979E+02  0.00000000000E+00 0.  1.
         21   -1    0    0  501  503 -0.00000000000E+00 -0.00000000000E+00 -0.16976239037E+04  0.16976239037E+04  0.00000000000E+00 0.  1.
          6    1    1    2  501    0  0.18937761547E+02 -0.74467766626E+02 -0.15248765904E+04  0.15365811736E+04  0.17300000000E+03 0.  1.
         -6    1    1    2    0  502 -0.18937761547E+02  0.74467766626E+02 -0.11321893433E+03  0.22057110910E+03  0.17300000000E+03 0.  1.
<mgrwt>
<rscale>  2 0.18929629E+03</rscale>
<asrwt>0</asrwt>
<pdfrwt beam="1">  1       21 0.91582120E-02 0.18929629E+03</pdfrwt>
<pdfrwt beam="2">  1       21 0.26117291E+00 0.18929629E+03</pdfrwt>
<totfact> 0.54386798E+03</totfact>
</mgrwt>
</event>
<event>
 4    1  0.4349106E+000  0.2248668E+03  0.7546771E-02  0.1130306E+00
         21   -1    0    0  503  502  0.00000000000E+00  0.00000000000E+00  0.65892117663E+03  0.65892117663E+03  0.00000000000E+00 0.  1.
         21   -1    0    0  501  503 -0.00000000000E+00 -0.00000000000E+00 -0.78877494007E+02  0.78877494007E+02  0.00000000000E+00 0. -1.
          6    1    1    2  501    0  0.13281465299E+03  0.54739019834E+02  0.35076029594E+03  0.41665078609E+03  0.17300000000E+03 0. -1.
         -6    1    1    2    0  502 -0.13281465299E+03 -0.54739019834E+02  0.22928338668E+03  0.32114788455E+03  0.17300000000E+03 0.  1.
<mgrwt>
<rscale>  2 0.22486683E+03</rscale>
<asrwt>0</asrwt>
<pdfrwt beam="1">  1       21 0.10137248E+00 0.22486683E+03</pdfrwt>
<pdfrwt beam="2">  1       21 0.12135000E-01 0.22486683E+03</pdfrwt>
<totfact> 0.44972886E+04</totfact>
</mgrwt>
</event>
<event>
 4    1  0.4349106E+000  0.1848293E+03  0.7546771E-02  0.1163209E+00
         21   -1    0    0  503  502  0.00000000000E+00  0.00000000000E+00  0.41658292338E+03  0.41658292338E+03  0.00000000000E+00 0.  1.
         21   -1    0    0  501  503 -0.00000000000E+00 -0.00000000000E+00 -0.17988860843E+03  0.17988860843E+03  0.00000000000E+00 0.  1.
          6    1    1    2  501    0 -0.56882239585E+02  0.31579769479E+02 -0.10164790879E+03  0.21093640839E+03  0.17300000000E+03 0.  1.
         -6    1    1    2    0  502  0.56882239585E+02 -0.31579769479E+02  0.33834222375E+03  0.38553512342E+03  0.17300000000E+03 0.  1.
<mgrwt>
<rscale>  2 0.18482930E+03</rscale>
<asrwt>0</asrwt>
<pdfrwt beam="1">  1       21 0.64089680E-01 0.18482930E+03</pdfrwt>
<pdfrwt beam="2">  1       21 0.27675171E-01 0.18482930E+03</pdfrwt>
<totfact> 0.28125628E+04</totfact>
</mgrwt>
</event>
<event>
 4    1  0.4349106E+000  0.1741795E+03  0.7546771E-02  0.1173558E+00
         21   -1    0    0  503  502  0.00000000000E+00  0.00000000000E+00  0.28300130396E+03  0.28300130396E+03  0.00000000000E+00 0.  1.
         21   -1    0    0  501  503 -0.00000000000E+00 -0.00000000000E+00 -0.10948906413E+03  0.10948906413E+03  0.00000000000E+00 0.  1.
          6    1    1    2  501    0  0.20020315879E+02 -0.29454229518E+01  0.58397083016E+02  0.18370821394E+03  0.17300000000E+03 0.  1.
         -6    1    1    2    0  502 -0.20020315879E+02  0.29454229518E+01  0.11511515681E+03  0.20878215415E+03  0.17300000000E+03 0.  1.
<mgrwt>
<rscale>  2 0.17417947E+03</rscale>
<asrwt>0</asrwt>
<pdfrwt beam="1">  1       21 0.43538662E-01 0.17417947E+03</pdfrwt>
<pdfrwt beam="2">  1       21 0.16844472E-01 0.17417947E+03</pdfrwt>
<totfact> 0.16181749E+05</totfact>
</mgrwt>
</event>
<event>
 4    1  0.4349106E+000  0.2229395E+03  0.7546771E-02  0.1131710E+00
         21   -1    0    0  501  502  0.00000000000E+00  0.00000000000E+00  0.88262981532E+02  0.88262981532E+02  0.00000000000E+00 0. -1.
         21   -1    0    0  502  503 -0.00000000000E+00 -0.00000000000E+00 -0.56406788614E+03  0.56406788614E+03  0.00000000000E+00 0. -1.
          6    1    1    2  501    0 -0.65817562846E+02 -0.12426202530E+03 -0.25132468698E+03  0.33595550419E+03  0.17300000000E+03 0. -1.
         -6    1    1    2    0  503  0.65817562846E+02  0.12426202530E+03 -0.22448021763E+03  0.31637536348E+03  0.17300000000E+03 0. -1.
<mgrwt>
<rscale>  2 0.22293946E+03</rscale>
<asrwt>0</asrwt>
<pdfrwt beam="1">  1       21 0.13578921E-01 0.22293946E+03</pdfrwt>
<pdfrwt beam="2">  1       21 0.86779671E-01 0.22293946E+03</pdfrwt>
<totfact> 0.52918276E+04</totfact>
</mgrwt>
</event>
<event>
 4    1  0.4349106E+000  0.1783795E+03  0.7546771E-02  0.1169381E+00
         21   -1    0    0  503  502  0.00000000000E+00  0.00000000000E+00  0.18213019273E+03  0.18213019273E+03  0.00000000000E+00 0.  1.
         21   -1    0    0  501  503 -0.00000000000E+00 -0.00000000000E+00 -0.64561927617E+03  0.64561927617E+03  0.00000000000E+00 0.  1.
          6    1    1    2  501    0  0.41773491057E+02  0.12050371992E+02 -0.58521338742E+03  0.61179567246E+03  0.17300000000E+03 0.  1.
         -6    1    1    2    0  502 -0.41773491057E+02 -0.12050371992E+02  0.12172430398E+03  0.21595379645E+03  0.17300000000E+03 0.  1.
<mgrwt>
<rscale>  2 0.17837947E+03</rscale>
<asrwt>0</asrwt>
<pdfrwt beam="1">  1       21 0.28020029E-01 0.17837947E+03</pdfrwt>
<pdfrwt beam="2">  1       21 0.99326045E-01 0.17837947E+03</pdfrwt>
<totfact> 0.10253049E+04</totfact>
</mgrwt>
</event>
<event>
 4    1  0.4349106E+000  0.1865529E+03  0.7546771E-02  0.1161608E+00
         21   -1    0    0  501  502  0.00000000000E+00  0.00000000000E+00  0.44420660741E+02  0.44420660741E+02  0.00000000000E+00 0. -1.
         21   -1    0    0  502  503 -0.00000000000E+00 -0.00000000000E+00 -0.79885532990E+03  0.79885532990E+03  0.00000000000E+00 0. -1.
          6    1    1    2  501    0 -0.50477446247E+02 -0.48218517327E+02 -0.43574224322E+03  0.47399715244E+03  0.17300000000E+03 0. -1.
         -6    1    1    2    0  503  0.50477446247E+02  0.48218517327E+02 -0.31869242593E+03  0.36927883820E+03  0.17300000000E+03 0. -1.
<mgrwt>
<rscale>  2 0.18655294E+03</rscale>
<asrwt>0</asrwt>
<pdfrwt beam="1">  1       21 0.68339481E-02 0.18655294E+03</pdfrwt>
<pdfrwt beam="2">  1       21 0.12290082E+00 0.18655294E+03</pdfrwt>
<totfact> 0.78682999E+04</totfact>
</mgrwt>
</event>
<event>
 4    1  0.4349106E+000  0.1854705E+03  0.7546771E-02  0.1162611E+00
         21   -1    0    0  501  502  0.00000000000E+00  0.00000000000E+00  0.27066776411E+03  0.27066776411E+03  0.00000000000E+00 0.  1.
         21   -1    0    0  502  503 -0.00000000000E+00 -0.00000000000E+00 -0.15850788245E+03  0.15850788245E+03  0.00000000000E+00 0. -1.
          6    1    1    2  501    0  0.64505785674E+02  0.17587345141E+02  0.15161535618E+03  0.23955485243E+03  0.17300000000E+03 0.  1.
         -6    1    1    2    0  503 -0.64505785674E+02 -0.17587345141E+02 -0.39455474526E+02  0.18962079412E+03  0.17300000000E+03 0.  1.
<mgrwt>
<rscale>  2 0.18547051E+03</rscale>
<asrwt>0</asrwt>
<pdfrwt beam="1">  1       21 0.41641195E-01 0.18547051E+03</pdfrwt>
<pdfrwt beam="2">  1       21 0.24385828E-01 0.18547051E+03</pdfrwt>
<totfact> 0.88430887E+04</totfact>
</mgrwt>
</event>
<event>
 4    1  0.4349106E+000  0.2909824E+03  0.7546771E-02  0.1089837E+00
         21   -1    0    0  501  502  0.00000000000E+00  0.00000000000E+00  0.35106151038E+03  0.35106151038E+03  0.00000000000E+00 0.  1.
         21   -1    0    0  502  503 -0.00000000000E+00 -0.00000000000E+00 -0.26428459451E+03  0.26428459451E+03  0.00000000000E+00 0.  1.
          6    1    1    2  501    0  0.11922612308E+03  0.20131297803E+03  0.13434948631E+03  0.32050049613E+03  0.17300000000E+03 0.  1.
         -6    1    1    2    0  503 -0.11922612308E+03 -0.20131297803E+03 -0.47572570435E+02  0.29484560876E+03  0.17300000000E+03 0.  1.
<mgrwt>
<rscale>  2 0.29098245E+03</rscale>
<asrwt>0</asrwt>
<pdfrwt beam="1">  1       21 0.54009463E-01 0.29098245E+03</pdfrwt>
<pdfrwt beam="2">  1       21 0.40659168E-01 0.29098245E+03</pdfrwt>
<totfact> 0.17960819E+04</totfact>
</mgrwt>
</event>
<event>
 4    1  0.4349106E+000  0.2602202E+03  0.7546771E-02  0.1107011E+00
         21   -1    0    0  503  502  0.00000000000E+00  0.00000000000E+00  0.12940811143E+04  0.12940811143E+04  0.00000000000E+00 0.  1.
         21   -1    0    0  501  503 -0.00000000000E+00 -0.00000000000E+00 -0.52469963996E+02  0.52469963996E+02  0.00000000000E+00 0.  1.
          6    1    1    2  501    0 -0.38038354143E+01  0.19434778276E+03  0.58558071665E+03  0.64079583764E+03  0.17300000000E+03 0.  1.
         -6    1    1    2    0  502  0.38038354143E+01 -0.19434778276E+03  0.65603043362E+03  0.70575524062E+03  0.17300000000E+03 0.  1.
<mgrwt>
<rscale>  2 0.26022016E+03</rscale>
<asrwt>0</asrwt>
<pdfrwt beam="1">  1       21 0.19908938E+00 0.26022016E+03</pdfrwt>
<pdfrwt beam="2">  1       21 0.80723031E-02 0.26022016E+03</pdfrwt>
<totfact> 0.15338973E+04</totfact>
</mgrwt>
</event>
<event>
 4    1  0.4349106E+000  0.1780454E+03  0.7546771E-02  0.1169708E+00
         21   -1    0    0  501  502  0.00000000000E+00  0.00000000000E+00  0.14458660428E+04  0.14458660428E+04  0.00000000000E+00 0.  1.
         21   -1    0    0  502  503 -0.00000000000E+00 -0.00000000000E+00 -0.33193678919E+02  0.33193678919E+02  0.00000000000E+00 0.  1.
          6    1    1    2  501    0 -0.35688699376E+02  0.22303920345E+02  0.11372304511E+04  0.11510835100E+04  0.17300000000E+03 0.  1.
         -6    1    1    2    0  503  0.35688699376E+02 -0.22303920345E+02  0.27544191279E+03  0.32797621171E+03  0.17300000000E+03 0.  1.
<mgrwt>
<rscale>  2 0.17804535E+03</rscale>
<asrwt>0</asrwt>
<pdfrwt beam="1">  1       21 0.22244088E+00 0.17804535E+03</pdfrwt>
<pdfrwt beam="2">  1       21 0.51067209E-02 0.17804535E+03</pdfrwt>
<totfact> 0.25520069E+04</totfact>
</mgrwt>
</event>
<event>
 4    1  0.4349106E+000  0.1856511E+03  0.7546771E-02  0.1162443E+00
         21   -1    0    0  503  502  0.00000000000E+00  0.00000000000E+00  0.22518573459E+03  0.22518573459E+03  0.00000000000E+00 0.  1.
         21   -1    0    0  501  503 -0.00000000000E+00 -0.00000000000E+00 -0.17100295075E+03  0.17100295075E+03  0.00000000000E+00 0.  1.
          6    1    1    2  501    0  0.14486302875E+02 -0.65783657856E+02  0.91263852226E+02  0.20687057146E+03  0.17300000000E+03 0.  1.
         -6    1    1    2    0  502 -0.14486302875E+02  0.65783657856E+02 -0.37081068385E+02  0.18931811388E+03  0.17300000000E+03 0.  1.
<mgrwt>
<rscale>  2 0.18565113E+03</rscale>
<asrwt>0</asrwt>
<pdfrwt beam="1">  1       21 0.34643959E-01 0.18565113E+03</pdfrwt>
<pdfrwt beam="2">  1       21 0.26308146E-01 0.18565113E+03</pdfrwt>
<totfact> 0.11060248E+05</totfact>
</mgrwt>
</event>
<event>
 4    1  0.4349106E+000  0.2132779E+03  0.7546771E-02  0.1138996E+00
         21   -1    0    0  501  502  0.00000000000E+00  0.00000000000E+00  0.13010560212E+03  0.13010560212E+03  0.00000000000E+00 0. -1.
         21   -1    0    0  502  503 -0.00000000000E+00 -0.00000000000E+00 -0.18960053366E+04  0.18960053366E+04  0.00000000000E+00 0. -1.
          6    1    1    2  501    0  0.12383373499E+03 -0.14956247017E+02  0.31947440660E+02  0.21565741863E+03  0.17300000000E+03 0. -1.
         -6    1    1    2    0  503 -0.12383373499E+03  0.14956247017E+02 -0.17978471751E+04  0.18104535200E+04  0.17300000000E+03 0. -1.
<mgrwt>
<rscale>  2 0.21327795E+03</rscale>
<asrwt>0</asrwt>
<pdfrwt beam="1">  1       21 0.20016247E-01 0.21327795E+03</pdfrwt>
<pdfrwt beam="2">  1       21 0.29169312E+00 0.21327795E+03</pdfrwt>
<totfact> 0.85519935E+02</totfact>
</mgrwt>
</event>
<event>
 4    1  0.4349106E+000  0.2060256E+03  0.7546771E-02  0.1144753E+00
         21   -1    0    0  501  502  0.00000000000E+00  0.00000000000E+00  0.37189685459E+03  0.37189685459E+03  0.00000000000E+00 0.  1.
         21   -1    0    0  502  503 -0.00000000000E+00 -0.00000000000E+00 -0.15841960707E+03  0.15841960707E+03  0.00000000000E+00 0.  1.
          6    1    1    2  501    0 -0.53745479311E+02 -0.98127267665E+02  0.24693147283E+03  0.32159242759E+03  0.17300000000E+03 0.  1.
         -6    1    1    2    0  503  0.53745479311E+02  0.98127267665E+02 -0.33454225314E+02  0.20872403407E+03  0.17300000000E+03 0.  1.
<mgrwt>
<rscale>  2 0.20602557E+03</rscale>
<asrwt>0</asrwt>
<pdfrwt beam="1">  1       21 0.57214901E-01 0.20602557E+03</pdfrwt>
<pdfrwt beam="2">  1       21 0.24372247E-01 0.20602557E+03</pdfrwt>
<totfact> 0.45302484E+04</totfact>
</mgrwt>
</event>
<event>
 4    1  0.4349106E+000  0.2622605E+03  0.7546771E-02  0.1105793E+00
         21   -1    0    0  503  502  0.00000000000E+00  0.00000000000E+00  0.57282306658E+02  0.57282306658E+02  0.00000000000E+00 0. -1.
         21   -1    0    0  501  503 -0.00000000000E+00 -0.00000000000E+00 -0.12020303612E+04  0.12020303612E+04  0.00000000000E+00 0.  1.
          6    1    1    2  501    0 -0.16410305863E+03 -0.10918671877E+03 -0.55165987091E+03  0.61082662563E+03  0.17300000000E+03 0. -1.
         -6    1    1    2    0  502  0.16410305863E+03  0.10918671877E+03 -0.59308818368E+03  0.64848604227E+03  0.17300000000E+03 0.  1.
<mgrwt>
<rscale>  2 0.26226047E+03</rscale>
<asrwt>0</asrwt>
<pdfrwt beam="1">  1       21 0.88126627E-02 0.26226047E+03</pdfrwt>
<pdfrwt beam="2">  1       21 0.18492775E+00 0.26226047E+03</pdfrwt>
<totfact> 0.16310691E+04</totfact>
</mgrwt>
</event>
<event>
 4    1  0.4349106E+000  0.2276580E+03  0.7546771E-02  0.1128299E+00
         21   -1    0    0  501  502  0.00000000000E+00  0.00000000000E+00  0.64084499293E+02  0.64084499293E+02  0.00000000000E+00 0.  1.
         21   -1    0    0  502  503 -0.00000000000E+00 -0.00000000000E+00 -0.11615831731E+04  0.11615831731E+04  0.00000000000E+00 0. -1.
          6    1    1    2  501    0  0.13008023682E+03 -0.70557159400E+02 -0.21099276908E+03  0.31039672897E+03  0.17300000000E+03 0.  1.
         -6    1    1    2    0  503 -0.13008023682E+03  0.70557159400E+02 -0.88650590478E+03  0.91527094347E+03  0.17300000000E+03 0. -1.
<mgrwt>
<rscale>  2 0.22765803E+03</rscale>
<asrwt>0</asrwt>
<pdfrwt beam="1">  1       21 0.98591543E-02 0.22765803E+03</pdfrwt>
<pdfrwt beam="2">  1       21 0.17870509E+00 0.22765803E+03</pdfrwt>
<totfact> 0.15068011E+04</totfact>
</mgrwt>
</event>
<event>
 4    1  0.4349106E+000  0.1879131E+03  0.7546771E-02  0.1160357E+00
         21   -1    0    0  501  502  0.00000000000E+00  0.00000000000E+00  0.10165678473E+04  0.10165678473E+04  0.00000000000E+00 0. -1.
         21   -1    0    0  502  503 -0.00000000000E+00 -0.00000000000E+00 -0.44572533225E+02  0.44572533225E+02  0.00000000000E+00 0. -1.
          6    1    1    2  501    0  0.72912618536E+02  0.81282525510E+01  0.73524708931E+03  0.75888049175E+03  0.17300000000E+03 0. -1.
         -6    1    1    2    0  503 -0.72912618536E+02 -0.81282525510E+01  0.23674822479E+03  0.30225988879E+03  0.17300000000E+03 0. -1.
<mgrwt>
<rscale>  2 0.18791306E+03</rscale>
<asrwt>0</asrwt>
<pdfrwt beam="1">  1       21 0.15639504E+00 0.18791306E+03</pdfrwt>
<pdfrwt beam="2">  1       21 0.68573135E-02 0.18791306E+03</pdfrwt>
<totfact> 0.42059539E+04</totfact>
</mgrwt>
</event>
<event>
 4    1  0.4349106E+000  0.2981874E+03  0.7546771E-02  0.1086150E+00
         21   -1    0    0  501  502  0.00000000000E+00  0.00000000000E+00  0.10731701800E+03  0.10731701800E+03  0.00000000000E+00 0. -1.
         21   -1    0    0  502  503 -0.00000000000E+00 -0.00000000000E+00 -0.89119284937E+03  0.89119284937E+03  0.00000000000E+00 0.  1.
          6    1    1    2  501    0 -0.18878265317E+03  0.15279989697E+03 -0.25955530517E+03  0.39532854070E+03  0.17300000000E+03 0.  1.
         -6    1    1    2    0  503  0.18878265317E+03 -0.15279989697E+03 -0.52432052620E+03  0.60318132667E+03  0.17300000000E+03 0. -1.
<mgrwt>
<rscale>  2 0.29818735E+03</rscale>
<asrwt>0</asrwt>
<pdfrwt beam="1">  1       21 0.16510311E-01 0.29818735E+03</pdfrwt>
<pdfrwt beam="2">  1       21 0.13710659E+00 0.29818735E+03</pdfrwt>
<totfact> 0.11678478E+04</totfact>
</mgrwt>
</event>
<event>
 4    1  0.4349106E+000  0.1977847E+03  0.7546771E-02  0.1151622E+00
         21   -1    0    0  503  502  0.00000000000E+00  0.00000000000E+00  0.34649788685E+03  0.34649788685E+03  0.00000000000E+00 0.  1.
         21   -1    0    0  501  503 -0.00000000000E+00 -0.00000000000E+00 -0.18683840481E+03  0.18683840481E+03  0.00000000000E+00 0.  1.
          6    1    1    2  501    0  0.48933751295E+02  0.82433374589E+02 -0.87927087941E+02  0.21644848361E+03  0.17300000000E+03 0.  1.
         -6    1    1    2    0  502 -0.48933751295E+02 -0.82433374589E+02  0.24758656997E+03  0.31688780805E+03  0.17300000000E+03 0.  1.
<mgrwt>
<rscale>  2 0.19778466E+03</rscale>
<asrwt>0</asrwt>
<pdfrwt beam="1">  1       21 0.53307367E-01 0.19778466E+03</pdfrwt>
<pdfrwt beam="2">  1       21 0.28744370E-01 0.19778466E+03</pdfrwt>
<totfact> 0.38480232E+04</totfact>
</mgrwt>
</event>
<event>
 4    1  0.4349106E+000  0.2765885E+03  0.7546771E-02  0.1097567E+00
         21   -1    0    0  503  502  0.00000000000E+00  0.00000000000E+00  0.20602943098E+03  0.20602943098E+03  0.00000000000E+00 0.  1.
         21   -1    0    0  501  503 -0.00000000000E+00 -0.00000000000E+00 -0.38683749303E+03  0.38683749303E+03  0.00000000000E+00 0. -1.
          6    1    1    2  501    0  0.12962547393E+03 -0.17253813989E+03 -0.14979049543E+03  0.31454469592E+03  0.17300000000E+03 0.  1.
         -6    1    1    2    0  502 -0.12962547393E+03  0.17253813989E+03 -0.31017566622E+02  0.27832222809E+03  0.17300000000E+03 0.  1.
<mgrwt>
<rscale>  2 0.27658845E+03</rscale>
<asrwt>0</asrwt>
<pdfrwt beam="1">  1       21 0.31696836E-01 0.27658845E+03</pdfrwt>
<pdfrwt beam="2">  1       21 0.59513460E-01 0.27658845E+03</pdfrwt>
<totfact> 0.24201160E+04</totfact>
</mgrwt>
</event>
<event>
 4    1  0.4349106E+000  0.2053556E+03  0.7546771E-02  0.1145298E+00
         21   -1    0    0  503  502  0.00000000000E+00  0.00000000000E+00  0.11045598990E+03  0.11045598990E+03  0.00000000000E+00 0.  1.
         21   -1    0    0  501  503 -0.00000000000E+00 -0.00000000000E+00 -0.41151294183E+03  0.41151294183E+03  0.00000000000E+00 0. -1.
          6    1    1    2  501    0  0.10176189460E+03  0.43433162151E+02 -0.22066971115E+03  0.30143995121E+03  0.17300000000E+03 0. -1.
         -6    1    1    2    0  502 -0.10176189460E+03 -0.43433162151E+02 -0.80387240779E+02  0.22052898052E+03  0.17300000000E+03 0.  1.
<mgrwt>
<rscale>  2 0.20535560E+03</rscale>
<asrwt>0</asrwt>
<pdfrwt beam="1">  1       21 0.16993230E-01 0.20535560E+03</pdfrwt>
<pdfrwt beam="2">  1       21 0.63309682E-01 0.20535560E+03</pdfrwt>
<totfact> 0.71640904E+04</totfact>
</mgrwt>
</event>
<event>
 4    1  0.4349106E+000  0.1982469E+03  0.7546771E-02  0.1151227E+00
         21   -1    0    0  503  502  0.00000000000E+00  0.00000000000E+00  0.41836299403E+02  0.41836299403E+02  0.00000000000E+00 0. -1.
         21   -1    0    0  501  503 -0.00000000000E+00 -0.00000000000E+00 -0.10607387233E+04  0.10607387233E+04  0.00000000000E+00 0. -1.
          6    1    1    2  501    0 -0.11274671752E+02 -0.96154644718E+02 -0.69589109391E+03  0.72357877837E+03  0.17300000000E+03 0. -1.
         -6    1    1    2    0  502  0.11274671752E+02  0.96154644718E+02 -0.32301133004E+03  0.37899624439E+03  0.17300000000E+03 0. -1.
<mgrwt>
<rscale>  2 0.19824690E+03</rscale>
<asrwt>0</asrwt>
<pdfrwt beam="1">  1       21 0.64363541E-02 0.19824690E+03</pdfrwt>
<pdfrwt beam="2">  1       21 0.16319056E+00 0.19824690E+03</pdfrwt>
<totfact> 0.41566885E+04</totfact>
</mgrwt>
</event>
<event>
 4    1  0.4349106E+000  0.2596573E+03  0.7546771E-02  0.1107349E+00
         21   -1    0    0  503  502  0.00000000000E+00  0.00000000000E+00  0.13839949061E+03  0.13839949061E+03  0.00000000000E+00 0. -1.
         21   -1    0    0  501  503 -0.00000000000E+00 -0.00000000000E+00 -0.48763470253E+03  0.48763470253E+03  0.00000000000E+00 0.  1.
          6    1    1    2  501    0  0.13376757870E+03 -0.13999696667E+03 -0.16479346496E+03  0.30753666754E+03  0.17300000000E+03 0.  1.
         -6    1    1    2    0  502 -0.13376757870E+03  0.13999696667E+03 -0.18444174696E+03  0.31849752559E+03  0.17300000000E+03 0. -1.
<mgrwt>
<rscale>  2 0.25965730E+03</rscale>
<asrwt>0</asrwt>
<pdfrwt beam="1">  1       21 0.21292229E-01 0.25965730E+03</pdfrwt>
<pdfrwt beam="2">  1       21 0.75020724E-01 0.25965730E+03</pdfrwt>
<totfact> 0.31561297E+04</totfact>
</mgrwt>
</event>
<event>
 4    1  0.4349106E+000  0.2477889E+03  0.7546771E-02  0.1114710E+00
         21   -1    0    0  503  502  0.00000000000E+00  0.00000000000E+00  0.32373995022E+04  0.32373995022E+04  0.00000000000E+00 0.  1.
         21   -1    0    0  501  503 -0.00000000000E+00 -0.00000000000E+00 -0.20850481249E+02  0.20850481249E+02  0.00000000000E+00 0. -1.
          6    1    1    2  501    0  0.17739101157E+03 -0.16632764270E+01  0.11184569812E+04  0.11455764297E+04  0.17300000000E+03 0. -1.
         -6    1    1    2    0  502 -0.17739101157E+03  0.16632764270E+01  0.20980920398E+04  0.21126735538E+04  0.17300000000E+03 0.  1.
<mgrwt>
<rscale>  2 0.24778890E+03</rscale>
<asrwt>0</asrwt>
<pdfrwt beam="1">  1       21 0.49806106E+00 0.24778890E+03</pdfrwt>
<pdfrwt beam="2">  1       21 0.32077689E-02 0.24778890E+03</pdfrwt>
<totfact> 0.10243252E+03</totfact>
</mgrwt>
</event>
<event>
 4    1  0.4349106E+000  0.2521203E+03  0.7546771E-02  0.1111972E+00
         21   -1    0    0  503  502  0.00000000000E+00  0.00000000000E+00  0.77035323997E+02  0.77035323997E+02  0.00000000000E+00 0.  1.
         21   -1    0    0  501  503 -0.00000000000E+00 -0.00000000000E+00 -0.19808167594E+04  0.19808167594E+04  0.00000000000E+00 0. -1.
          6    1    1    2  501    0  0.14332615824E+03 -0.11442569135E+03 -0.17378154064E+04  0.17560088306E+04  0.17300000000E+03 0. -1.
         -6    1    1    2    0  502 -0.14332615824E+03  0.11442569135E+03 -0.16596602904E+03  0.30184325282E+03  0.17300000000E+03 0.  1.
<mgrwt>
<rscale>  2 0.25212026E+03</rscale>
<asrwt>0</asrwt>
<pdfrwt beam="1">  1       21 0.11851588E-01 0.25212026E+03</pdfrwt>
<pdfrwt beam="2">  1       21 0.30474105E+00 0.25212026E+03</pdfrwt>
<totfact> 0.17984350E+03</totfact>
</mgrwt>
</event>
<event>
 4    1  0.4349106E+000  0.1777200E+03  0.7546771E-02  0.1170028E+00
         21   -1    0    0  501  502  0.00000000000E+00  0.00000000000E+00  0.15745661299E+03  0.15745661299E+03  0.00000000000E+00 0. -1.
         21   -1    0    0  502  503 -0.00000000000E+00 -0.00000000000E+00 -0.34434947673E+03  0.34434947673E+03  0.00000000000E+00 0. -1.
          6    1    1    2  501    0 -0.11250197625E+02  0.39100429783E+02  0.68668362920E+02  0.19052494488E+03  0.17300000000E+03 0. -1.
         -6    1    1    2    0  503  0.11250197625E+02 -0.39100429783E+02 -0.25556122666E+03  0.31128114484E+03  0.17300000000E+03 0. -1.
<mgrwt>
<rscale>  2 0.17772003E+03</rscale>
<asrwt>0</asrwt>
<pdfrwt beam="1">  1       21 0.24224095E-01 0.17772003E+03</pdfrwt>
<pdfrwt beam="2">  1       21 0.52976842E-01 0.17772003E+03</pdfrwt>
<totfact> 0.54675254E+04</totfact>
</mgrwt>
</event>
<event>
 4    1  0.4349106E+000  0.1761913E+03  0.7546771E-02  0.1171541E+00
         21   -1    0    0  503  502  0.00000000000E+00  0.00000000000E+00  0.76787511433E+02  0.76787511433E+02  0.00000000000E+00 0. -1.
         21   -1    0    0  501  503 -0.00000000000E+00 -0.00000000000E+00 -0.54287657225E+03  0.54287657225E+03  0.00000000000E+00 0. -1.
          6    1    1    2  501    0  0.26078836093E+02  0.20839469677E+02 -0.38959610848E+03  0.42758451437E+03  0.17300000000E+03 0. -1.
         -6    1    1    2    0  502 -0.26078836093E+02 -0.20839469677E+02 -0.76492952333E+02  0.19207956931E+03  0.17300000000E+03 0. -1.
<mgrwt>
<rscale>  2 0.17619134E+03</rscale>
<asrwt>0</asrwt>
<pdfrwt beam="1">  1       21 0.11813463E-01 0.17619134E+03</pdfrwt>
<pdfrwt beam="2">  1       21 0.83519476E-01 0.17619134E+03</pdfrwt>
<totfact> 0.75815869E+04</totfact>
</mgrwt>
</event>
<event>
 4    1  0.4349106E+000  0.2175495E+03  0.7546771E-02  0.1135723E+00
         21   -1    0    0  503  502  0.00000000000E+00  0.00000000000E+00  0.56128105051E+03  0.56128105051E+03  0.00000000000E+00 0. -1.
         21   -1    0    0  501  503 -0.00000000000E+00 -0.00000000000E+00 -0.10430565042E+03  0.10430565042E+03  0.00000000000E+00 0.  1.
          6    1    1    2  501    0  0.12952828526E+03 -0.24924049065E+02  0.82818111069E+02  0.23278020626E+03  0.17300000000E+03 0.  1.
         -6    1    1    2    0  502 -0.12952828526E+03  0.24924049065E+02  0.37415728902E+03  0.43280649467E+03  0.17300000000E+03 0. -1.
<mgrwt>
<rscale>  2 0.21754950E+03</rscale>
<asrwt>0</asrwt>
<pdfrwt beam="1">  1       21 0.86350929E-01 0.21754950E+03</pdfrwt>
<pdfrwt beam="2">  1       21 0.16047023E-01 0.21754950E+03</pdfrwt>
<totfact> 0.39568759E+04</totfact>
</mgrwt>
</event>
<event>
 4    1  0.4349106E+000  0.2227530E+03  0.7546771E-02  0.1131847E+00
         21   -1    0    0  503  502  0.00000000000E+00  0.00000000000E+00  0.41800263297E+02  0.41800263297E+02  0.00000000000E+00 0. -1.
         21   -1    0    0  501  503 -0.00000000000E+00 -0.00000000000E+00 -0.12017456679E+04  0.12017456679E+04  0.00000000000E+00 0. -1.
          6    1    1    2  501    0  0.63330703718E+02  0.12521629935E+03 -0.51120942217E+03  0.55763247123E+03  0.17300000000E+03 0. -1.
         -6    1    1    2    0  502 -0.63330703718E+02 -0.12521629935E+03 -0.64873598240E+03  0.68591345993E+03  0.17300000000E+03 0. -1.
<mgrwt>
<rscale>  2 0.22275300E+03</rscale>
<asrwt>0</asrwt>
<pdfrwt beam="1">  1       21 0.64308096E-02 0.22275300E+03</pdfrwt>
<pdfrwt beam="2">  1       21 0.18488395E+00 0.22275300E+03</pdfrwt>
<totfact> 0.28943766E+04</totfact>
</mgrwt>
</event>
<event>
 4    1  0.4349106E+000  0.2660846E+03  0.7546771E-02  0.1103542E+00
         21   -1    0    0  503  502  0.00000000000E+00  0.00000000000E+00  0.72486748647E+03  0.72486748647E+03  0.00000000000E+00 0. -1.
         21   -1    0    0  501  503 -0.00000000000E+00 -0.00000000000E+00 -0.23508490811E+03  0.23508490811E+03  0.00000000000E+00 0. -1.
          6    1    1    2  501    0  0.10316523089E+03 -0.17386471156E+03 -0.12206749288E+03  0.29274814364E+03  0.17300000000E+03 0. -1.
         -6    1    1    2    0  502 -0.10316523089E+03  0.17386471156E+03  0.61185007124E+03  0.66720425093E+03  0.17300000000E+03 0. -1.
<mgrwt>
<rscale>  2 0.26608458E+03</rscale>
<asrwt>0</asrwt>
<pdfrwt beam="1">  1       21 0.11151807E+00 0.26608458E+03</pdfrwt>
<pdfrwt beam="2">  1       21 0.36166909E-01 0.26608458E+03</pdfrwt>
<totfact> 0.44213574E+03</totfact>
</mgrwt>
</event>
<event>
 4    1  0.4349106E+000  0.2321610E+03  0.7546771E-02  0.1125128E+00
         21   -1    0    0  501  502  0.00000000000E+00  0.00000000000E+00  0.19446504143E+03  0.19446504143E+03  0.00000000000E+00 0. -1.
         21   -1    0    0  502  503 -0.00000000000E+00 -0.00000000000E+00 -0.71613192193E+03  0.71613192193E+03  0.00000000000E+00 0. -1.
          6    1    1    2  501    0 -0.13289953514E+03 -0.79419488183E+02  0.95630821044E+02  0.25108563376E+03  0.17300000000E+03 0. -1.
         -6    1    1    2    0  503  0.13289953514E+03  0.79419488183E+02 -0.61729770154E+03  0.65951132960E+03  0.17300000000E+03 0. -1.
<mgrwt>
<rscale>  2 0.23216103E+03</rscale>
<asrwt>0</asrwt>
<pdfrwt beam="1">  1       21 0.29917698E-01 0.23216103E+03</pdfrwt>
<pdfrwt beam="2">  1       21 0.11017414E+00 0.23216103E+03</pdfrwt>
<totfact> 0.67755850E+03</totfact>
</mgrwt>
</event>
<event>
 4    1  0.4349106E+000  0.2001948E+03  0.7546771E-02  0.1149575E+00
         21   -1    0    0  501  502  0.00000000000E+00  0.00000000000E+00  0.14721039990E+03  0.14721039990E+03  0.00000000000E+00 0. -1.
         21   -1    0    0  502  503 -0.00000000000E+00 -0.00000000000E+00 -0.37573793955E+03  0.37573793955E+03  0.00000000000E+00 0. -1.
          6    1    1    2  501    0 -0.18763362332E+02 -0.98979210078E+02  0.22960942587E+02  0.20150720255E+03  0.17300000000E+03 0. -1.
         -6    1    1    2    0  503  0.18763362332E+02  0.98979210078E+02 -0.25148848224E+03  0.32144113690E+03  0.17300000000E+03 0. -1.
<mgrwt>
<rscale>  2 0.20019477E+03</rscale>
<asrwt>0</asrwt>
<pdfrwt beam="1">  1       21 0.22647754E-01 0.20019477E+03</pdfrwt>
<pdfrwt beam="2">  1       21 0.57805837E-01 0.20019477E+03</pdfrwt>
<totfact> 0.51094789E+04</totfact>
</mgrwt>
</event>
<event>
 4    1  0.4349106E+000  0.1914352E+03  0.7546771E-02  0.1157173E+00
         21   -1    0    0  503  502  0.00000000000E+00  0.00000000000E+00  0.39250290483E+02  0.39250290483E+02  0.00000000000E+00 0.  1.
         21   -1    0    0  501  503 -0.00000000000E+00 -0.00000000000E+00 -0.10909042272E+04  0.10909042272E+04  0.00000000000E+00 0.  1.
          6    1    1    2  501    0 -0.40942373544E+02  0.71008104308E+02 -0.74034637871E+03  0.76469614181E+03  0.17300000000E+03 0.  1.
         -6    1    1    2    0  502  0.40942373544E+02 -0.71008104308E+02 -0.31130755805E+03  0.36545837592E+03  0.17300000000E+03 0.  1.
<mgrwt>
<rscale>  2 0.19143518E+03</rscale>
<asrwt>0</asrwt>
<pdfrwt beam="1">  1       21 0.60385064E-02 0.19143518E+03</pdfrwt>
<pdfrwt beam="2">  1       21 0.16783141E+00 0.19143518E+03</pdfrwt>
<totfact> 0.43141634E+04</totfact>
</mgrwt>
</event>
<event>
 4    1  0.4349106E+000  0.2188845E+03  0.7546771E-02  0.1134717E+00
         21   -1    0    0  503  502  0.00000000000E+00  0.00000000000E+00  0.17928005777E+03  0.17928005777E+03  0.00000000000E+00 0.  1.
         21   -1    0    0  501  503 -0.00000000000E+00 -0.00000000000E+00 -0.62992803190E+03  0.62992803190E+03  0.00000000000E+00 0.  1.
          6    1    1    2  501    0 -0.21654809978E+02  0.13233469871E+03 -0.53233411225E+03  0.57557797937E+03  0.17300000000E+03 0.  1.
         -6    1    1    2    0  502  0.21654809978E+02 -0.13233469871E+03  0.81686138111E+02  0.23363011030E+03  0.17300000000E+03 0.  1.
<mgrwt>
<rscale>  2 0.21888445E+03</rscale>
<asrwt>0</asrwt>
<pdfrwt beam="1">  1       21 0.27581548E-01 0.21888445E+03</pdfrwt>
<pdfrwt beam="2">  1       21 0.96912004E-01 0.21888445E+03</pdfrwt>
<totfact> 0.10894909E+04</totfact>
</mgrwt>
</event>
<event>
 4    1  0.4349106E+000  0.3222782E+03  0.7546771E-02  0.1074606E+00
         21   -1    0    0  501  502  0.00000000000E+00  0.00000000000E+00  0.73883548367E+03  0.73883548367E+03  0.00000000000E+00 0.  1.
         21   -1    0    0  502  503 -0.00000000000E+00 -0.00000000000E+00 -0.14853023737E+03  0.14853023737E+03  0.00000000000E+00 0.  1.
          6    1    1    2  501    0 -0.27039243419E+03  0.28673856903E+02  0.39782126676E+03  0.51198146336E+03  0.17300000000E+03 0.  1.
         -6    1    1    2    0  503  0.27039243419E+03 -0.28673856903E+02  0.19248397953E+03  0.37538425768E+03  0.17300000000E+03 0.  1.
<mgrwt>
<rscale>  2 0.32227823E+03</rscale>
<asrwt>0</asrwt>
<pdfrwt beam="1">  1       21 0.11366700E+00 0.32227823E+03</pdfrwt>
<pdfrwt beam="2">  1       21 0.22850806E-01 0.32227823E+03</pdfrwt>
<totfact> 0.10078126E+04</totfact>
</mgrwt>
</event>
<event>
 4    1  0.4349106E+000  0.2291647E+03  0.7546771E-02  0.1127229E+00
         21   -1    0    0  501  502  0.00000000000E+00  0.00000000000E+00  0.66924995653E+02  0.66924995653E+02  0.00000000000E+00 0.  1.
         21   -1    0    0  502  503 -0.00000000000E+00 -0.00000000000E+00 -0.11837906020E+04  0.11837906020E+04  0.00000000000E+00 0.  1.
          6    1    1    2  501    0 -0.14443190132E+03 -0.41555888774E+02 -0.19533514615E+03  0.30111839089E+03  0.17300000000E+03 0.  1.
         -6    1    1    2    0  503  0.14443190132E+03  0.41555888774E+02 -0.92153046017E+03  0.94959720673E+03  0.17300000000E+03 0.  1.
<mgrwt>
<rscale>  2 0.22916471E+03</rscale>
<asrwt>0</asrwt>
<pdfrwt beam="1">  1       21 0.10296153E-01 0.22916471E+03</pdfrwt>
<pdfrwt beam="2">  1       21 0.18212163E+00 0.22916471E+03</pdfrwt>
<totfact> 0.13206726E+04</totfact>
</mgrwt>
</event>
<event>
 4    1  0.4349106E+000  0.1874406E+03  0.7546771E-02  0.1160790E+00
         21   -1    0    0  503  502  0.00000000000E+00  0.00000000000E+00  0.30258682664E+03  0.30258682664E+03  0.00000000000E+00 0. -1.
         21   -1    0    0  501  503 -0.00000000000E+00 -0.00000000000E+00 -0.12590550186E+03  0.12590550186E+03  0.00000000000E+00 0.  1.
          6    1    1    2  501    0  0.13645960308E+02 -0.70843132309E+02  0.28587663680E+02  0.18960805928E+03  0.17300000000E+03 0. -1.
         -6    1    1    2    0  502 -0.13645960308E+02  0.70843132309E+02  0.14809366110E+03  0.23888426923E+03  0.17300000000E+03 0. -1.
<mgrwt>
<rscale>  2 0.18744055E+03</rscale>
<asrwt>0</asrwt>
<pdfrwt beam="1">  1       21 0.46551819E-01 0.18744055E+03</pdfrwt>
<pdfrwt beam="2">  1       21 0.19370077E-01 0.18744055E+03</pdfrwt>
<totfact> 0.10849037E+05</totfact>
</mgrwt>
</event>
<event>
 4    1  0.4349106E+000  0.2115547E+03  0.7546771E-02  0.1140341E+00
         21   -1    0    0  503  502  0.00000000000E+00  0.00000000000E+00  0.33527250360E+03  0.33527250360E+03  0.00000000000E+00 0. -1.
         21   -1    0    0  501  503 -0.00000000000E+00 -0.00000000000E+00 -0.13407887985E+03  0.13407887985E+03  0.00000000000E+00 0. -1.
          6    1    1    2  501    0 -0.64897818339E+02 -0.10302755513E+03  0.85039447406E+02  0.22800682349E+03  0.17300000000E+03 0. -1.
         -6    1    1    2    0  502  0.64897818339E+02  0.10302755513E+03  0.11615417635E+03  0.24134455996E+03  0.17300000000E+03 0. -1.
<mgrwt>
<rscale>  2 0.21155473E+03</rscale>
<asrwt>0</asrwt>
<pdfrwt beam="1">  1       21 0.51580385E-01 0.21155473E+03</pdfrwt>
<pdfrwt beam="2">  1       21 0.20627520E-01 0.21155473E+03</pdfrwt>
<totfact> 0.77157743E+04</totfact>
</mgrwt>
</event>
<event>
 4    1  0.4349106E+000  0.1959704E+03  0.7546771E-02  0.1153184E+00
         21   -1    0    0  503  502  0.00000000000E+00  0.00000000000E+00  0.98660553087E+03  0.98660553087E+03  0.00000000000E+00 0.  1.
         21   -1    0    0  501  503 -0.00000000000E+00 -0.00000000000E+00 -0.52246489140E+02  0.52246489140E+02  0.00000000000E+00 0. -1.
          6    1    1    2  501    0  0.14562848290E+02 -0.90902907180E+02  0.20490361688E+03  0.28353113991E+03  0.17300000000E+03 0. -1.
         -6    1    1    2    0  502 -0.14562848290E+02  0.90902907180E+02  0.72945542484E+03  0.75532088010E+03  0.17300000000E+03 0.  1.
<mgrwt>
<rscale>  2 0.19597044E+03</rscale>
<asrwt>0</asrwt>
<pdfrwt beam="1">  1       21 0.15178545E+00 0.19597044E+03</pdfrwt>
<pdfrwt beam="2">  1       21 0.80379221E-02 0.19597044E+03</pdfrwt>
<totfact> 0.34412283E+04</totfact>
</mgrwt>
</event>
<event>
 4    1  0.4349106E+000  0.2242919E+03  0.7546771E-02  0.1130723E+00
         21   -1    0    0  503  502  0.00000000000E+00  0.00000000000E+00  0.90154161403E+03  0.90154161403E+03  0.00000000000E+00 0.  1.
         21   -1    0    0  501  503 -0.00000000000E+00 -0.00000000000E+00 -0.63838219561E+02  0.63838219561E+02  0.00000000000E+00 0.  1.
          6    1    1    2  501    0  0.10641779760E+02 -0.14235375629E+03  0.24758091425E+03  0.33407057415E+03  0.17300000000E+03 0.  1.
         -6    1    1    2    0  502 -0.10641779760E+02  0.14235375629E+03  0.59012248021E+03  0.63130925944E+03  0.17300000000E+03 0.  1.
<mgrwt>
<rscale>  2 0.22429186E+03</rscale>
<asrwt>0</asrwt>
<pdfrwt beam="1">  1       21 0.13869870E+00 0.22429186E+03</pdfrwt>
<pdfrwt beam="2">  1       21 0.98212652E-02 0.22429186E+03</pdfrwt>
<totfact> 0.30141046E+04</totfact>
</mgrwt>
</event>
<event>
 4    1  0.4349106E+000  0.1956750E+03  0.7546771E-02  0.1153440E+00
         21   -1    0    0  503  502  0.00000000000E+00  0.00000000000E+00  0.15570359904E+03  0.15570359904E+03  0.00000000000E+00 0.  1.
         21   -1    0    0  501  503 -0.00000000000E+00 -0.00000000000E+00 -0.25164617242E+03  0.25164617242E+03  0.00000000000E+00 0.  1.
          6    1    1    2  501    0 -0.10176590305E+02  0.90863225721E+02 -0.78728471083E+02  0.21091908623E+03  0.17300000000E+03 0.  1.
         -6    1    1    2    0  502  0.10176590305E+02 -0.90863225721E+02 -0.17214102302E+02  0.19643068522E+03  0.17300000000E+03 0.  1.
<mgrwt>
<rscale>  2 0.19567496E+03</rscale>
<asrwt>0</asrwt>
<pdfrwt beam="1">  1       21 0.23954400E-01 0.19567496E+03</pdfrwt>
<pdfrwt beam="2">  1       21 0.38714795E-01 0.19567496E+03</pdfrwt>
<totfact> 0.10558393E+05</totfact>
</mgrwt>
</event>
<event>
 4    1  0.4349106E+000  0.2018854E+03  0.7546771E-02  0.1148158E+00
         21   -1    0    0  503  502  0.00000000000E+00  0.00000000000E+00  0.45469526942E+02  0.45469526942E+02  0.00000000000E+00 0. -1.
         21   -1    0    0  501  503 -0.00000000000E+00 -0.00000000000E+00 -0.11465373382E+04  0.11465373382E+04  0.00000000000E+00 0. -1.
          6    1    1    2  501    0 -0.27754978363E+01 -0.10402415754E+03 -0.82893181916E+03  0.85316217073E+03  0.17300000000E+03 0. -1.
         -6    1    1    2    0  502  0.27754978363E+01  0.10402415754E+03 -0.27213599211E+03  0.33884469443E+03  0.17300000000E+03 0. -1.
<mgrwt>
<rscale>  2 0.20188543E+03</rscale>
<asrwt>0</asrwt>
<pdfrwt beam="1">  1       21 0.69953116E-02 0.20188543E+03</pdfrwt>
<pdfrwt beam="2">  1       21 0.17639037E+00 0.20188543E+03</pdfrwt>
<totfact> 0.28989506E+04</totfact>
</mgrwt>
</event>
<event>
 4    1  0.4349106E+000  0.2174292E+03  0.7546771E-02  0.1135814E+00
         21   -1    0    0  501  502  0.00000000000E+00  0.00000000000E+00  0.21660648792E+03  0.21660648792E+03  0.00000000000E+00 0. -1.
         21   -1    0    0  502  503 -0.00000000000E+00 -0.00000000000E+00 -0.43326138010E+03  0.43326138010E+03  0.00000000000E+00 0. -1.
          6    1    1    2  501    0  0.11811521978E+03  0.58268743346E+02  0.12057252664E+03  0.24862257696E+03  0.17300000000E+03 0. -1.
         -6    1    1    2    0  503 -0.11811521978E+03 -0.58268743346E+02 -0.33722741882E+03  0.40124529106E+03  0.17300000000E+03 0. -1.
<mgrwt>
<rscale>  2 0.21742919E+03</rscale>
<asrwt>0</asrwt>
<pdfrwt beam="1">  1       21 0.33324076E-01 0.21742919E+03</pdfrwt>
<pdfrwt beam="2">  1       21 0.66655596E-01 0.21742919E+03</pdfrwt>
<totfact> 0.17625758E+04</totfact>
</mgrwt>
</event>
<event>
 4    1  0.4349106E+000  0.3048750E+03  0.7546771E-02  0.1082829E+00
         21   -1    0    0  501  502  0.00000000000E+00  0.00000000000E+00  0.46733676133E+03  0.46733676133E+03  0.00000000000E+00 0.  1.
         21   -1    0    0  502  503 -0.00000000000E+00 -0.00000000000E+00 -0.20188380542E+03  0.20188380542E+03  0.00000000000E+00 0.  1.
          6    1    1    2  501    0  0.55840556087E+02  0.24474809038E+03  0.91981761055E+02  0.31844848848E+03  0.17300000000E+03 0.  1.
         -6    1    1    2    0  503 -0.55840556087E+02 -0.24474809038E+03  0.17347119486E+03  0.35077207827E+03  0.17300000000E+03 0.  1.
<mgrwt>
<rscale>  2 0.30487505E+03</rscale>
<asrwt>0</asrwt>
<pdfrwt beam="1">  1       21 0.71897963E-01 0.30487505E+03</pdfrwt>
<pdfrwt beam="2">  1       21 0.31059047E-01 0.30487505E+03</pdfrwt>
<totfact> 0.16422516E+04</totfact>
</mgrwt>
</event>
<event>
 4    1  0.4349106E+000  0.1839608E+03  0.7546771E-02  0.1164024E+00
         21   -1    0    0  501  502  0.00000000000E+00  0.00000000000E+00  0.14620745846E+03  0.14620745846E+03  0.00000000000E+00 0. -1.
         21   -1    0    0  502  503 -0.00000000000E+00 -0.00000000000E+00 -0.80283659472E+03  0.80283659472E+03  0.00000000000E+00 0.  1.
          6    1    1    2  501    0  0.49491915768E+02  0.38250882229E+02  0.72001457484E+02  0.19754946114E+03  0.17300000000E+03 0. -1.
         -6    1    1    2    0  503 -0.49491915768E+02 -0.38250882229E+02 -0.72863059375E+03  0.75149459204E+03  0.17300000000E+03 0.  1.
<mgrwt>
<rscale>  2 0.18396081E+03</rscale>
<asrwt>0</asrwt>
<pdfrwt beam="1">  1       21 0.22493455E-01 0.18396081E+03</pdfrwt>
<pdfrwt beam="2">  1       21 0.12351332E+00 0.18396081E+03</pdfrwt>
<totfact> 0.91573814E+03</totfact>
</mgrwt>
</event>
<event>
 4    1  0.4349106E+000  0.2264263E+03  0.7546771E-02  0.1129181E+00
         21   -1    0    0  503  502  0.00000000000E+00  0.00000000000E+00  0.14615148095E+03  0.14615148095E+03  0.00000000000E+00 0. -1.
         21   -1    0    0  501  503 -0.00000000000E+00 -0.00000000000E+00 -0.38888793267E+03  0.38888793267E+03  0.00000000000E+00 0. -1.
          6    1    1    2  501    0  0.10115987547E+03 -0.10538754228E+03 -0.20509793239E+03  0.30550616416E+03  0.17300000000E+03 0. -1.
         -6    1    1    2    0  502 -0.10115987547E+03  0.10538754228E+03 -0.37638519331E+02  0.22953324946E+03  0.17300000000E+03 0. -1.
<mgrwt>
<rscale>  2 0.22642627E+03</rscale>
<asrwt>0</asrwt>
<pdfrwt beam="1">  1       21 0.22484843E-01 0.22642627E+03</pdfrwt>
<pdfrwt beam="2">  1       21 0.59828912E-01 0.22642627E+03</pdfrwt>
<totfact> 0.47526969E+04</totfact>
</mgrwt>
</event>
<event>
 4    1  0.4349106E+000  0.1905303E+03  0.7546771E-02  0.1157984E+00
         21   -1    0    0  503  502  0.00000000000E+00  0.00000000000E+00  0.21137437496E+03  0.21137437496E+03  0.00000000000E+00 0.  1.
         21   -1    0    0  501  503 -0.00000000000E+00 -0.00000000000E+00 -0.46377182250E+03  0.46377182250E+03  0.00000000000E+00 0.  1.
          6    1    1    2  501    0  0.25208351283E+02 -0.75745237862E+02 -0.39407203729E+03  0.43771517292E+03  0.17300000000E+03 0.  1.
         -6    1    1    2    0  502 -0.25208351283E+02  0.75745237862E+02  0.14167458975E+03  0.23743102454E+03  0.17300000000E+03 0.  1.
<mgrwt>
<rscale>  2 0.19053032E+03</rscale>
<asrwt>0</asrwt>
<pdfrwt beam="1">  1       21 0.32519135E-01 0.19053032E+03</pdfrwt>
<pdfrwt beam="2">  1       21 0.71349511E-01 0.19053032E+03</pdfrwt>
<totfact> 0.16186798E+04</totfact>
</mgrwt>
</event>
<event>
 4    1  0.4349106E+000  0.2312499E+03  0.7546771E-02  0.1125763E+00
         21   -1    0    0  503  502  0.00000000000E+00  0.00000000000E+00  0.18917468275E+03  0.18917468275E+03  0.00000000000E+00 0. -1.
         21   -1    0    0  501  503 -0.00000000000E+00 -0.00000000000E+00 -0.93110005993E+03  0.93110005993E+03  0.00000000000E+00 0.  1.
          6    1    1    2  501    0  0.12897605530E+03 -0.83142586875E+02 -0.83840014171E+03  0.86970760041E+03  0.17300000000E+03 0.  1.
         -6    1    1    2    0  502 -0.12897605530E+03  0.83142586875E+02  0.96474764537E+02  0.25056714227E+03  0.17300000000E+03 0. -1.
<mgrwt>
<rscale>  2 0.23124989E+03</rscale>
<asrwt>0</asrwt>
<pdfrwt beam="1">  1       21 0.29103797E-01 0.23124989E+03</pdfrwt>
<pdfrwt beam="2">  1       21 0.14324616E+00 0.23124989E+03</pdfrwt>
<totfact> 0.36930195E+03</totfact>
</mgrwt>
</event>
<event>
 4    1  0.4349106E+000  0.2646378E+03  0.7546771E-02  0.1104388E+00
         21   -1    0    0  501  502  0.00000000000E+00  0.00000000000E+00  0.82659013001E+03  0.82659013001E+03  0.00000000000E+00 0. -1.
         21   -1    0    0  502  503 -0.00000000000E+00 -0.00000000000E+00 -0.15741145162E+03  0.15741145162E+03  0.00000000000E+00 0.  1.
          6    1    1    2  501    0  0.25218574441E+02 -0.19866604699E+03  0.66891768141E+03  0.71936363490E+03  0.17300000000E+03 0. -1.
         -6    1    1    2    0  503 -0.25218574441E+02  0.19866604699E+03  0.26099698397E+00  0.26463794672E+03  0.17300000000E+03 0.  1.
<mgrwt>
<rscale>  2 0.26463782E+03</rscale>
<asrwt>0</asrwt>
<pdfrwt beam="1">  1       21 0.12716771E+00 0.26463782E+03</pdfrwt>
<pdfrwt beam="2">  1       21 0.24217147E-01 0.26463782E+03</pdfrwt>
<totfact> 0.70042510E+03</totfact>
</mgrwt>
</event>
<event>
 4    1  0.4349106E+000  0.1856491E+03  0.7546771E-02  0.1162445E+00
         21   -1    0    0  503  502  0.00000000000E+00  0.00000000000E+00  0.19669238425E+03  0.19669238425E+03  0.00000000000E+00 0. -1.
         21   -1    0    0  501  503 -0.00000000000E+00 -0.00000000000E+00 -0.19453677595E+03  0.19453677595E+03  0.00000000000E+00 0. -1.
          6    1    1    2  501    0 -0.26369416676E+02  0.61977653509E+02 -0.60553696971E+02  0.19527500067E+03  0.17300000000E+03 0. -1.
         -6    1    1    2    0  502  0.26369416676E+02 -0.61977653509E+02  0.62709305266E+02  0.19595415953E+03  0.17300000000E+03 0. -1.
<mgrwt>
<rscale>  2 0.18564907E+03</rscale>
<asrwt>0</asrwt>
<pdfrwt beam="1">  1       21 0.30260367E-01 0.18564907E+03</pdfrwt>
<pdfrwt beam="2">  1       21 0.29928735E-01 0.18564907E+03</pdfrwt>
<totfact> 0.11245752E+05</totfact>
</mgrwt>
</event>
<event>
 4    1  0.4349106E+000  0.1812046E+03  0.7546771E-02  0.1166642E+00
         21   -1    0    0  503  502  0.00000000000E+00  0.00000000000E+00  0.15926216954E+03  0.15926216954E+03  0.00000000000E+00 0. -1.
         21   -1    0    0  501  503 -0.00000000000E+00 -0.00000000000E+00 -0.33736573477E+03  0.33736573477E+03  0.00000000000E+00 0. -1.
          6    1    1    2  501    0 -0.30276494922E+02  0.44603166212E+02 -0.24390142742E+03  0.30384702546E+03  0.17300000000E+03 0. -1.
         -6    1    1    2    0  502  0.30276494922E+02 -0.44603166212E+02  0.65797862195E+02  0.19278087885E+03  0.17300000000E+03 0. -1.
<mgrwt>
<rscale>  2 0.18120460E+03</rscale>
<asrwt>0</asrwt>
<pdfrwt beam="1">  1       21 0.24501872E-01 0.18120460E+03</pdfrwt>
<pdfrwt beam="2">  1       21 0.51902420E-01 0.18120460E+03</pdfrwt>
<totfact> 0.55759752E+04</totfact>
</mgrwt>
</event>
<event>
 4    1  0.4349106E+000  0.1935595E+03  0.7546771E-02  0.1155290E+00
         21   -1    0    0  503  502  0.00000000000E+00  0.00000000000E+00  0.38363621688E+03  0.38363621688E+03  0.00000000000E+00 0.  1.
         21   -1    0    0  501  503 -0.00000000000E+00 -0.00000000000E+00 -0.11158468747E+03  0.11158468747E+03  0.00000000000E+00 0.  1.
          6    1    1    2  501    0 -0.24096405988E+02 -0.83400408239E+02  0.48550403913E+02  0.19955552259E+03  0.17300000000E+03 0.  1.
         -6    1    1    2    0  502  0.24096405988E+02  0.83400408239E+02  0.22350112549E+03  0.29566538176E+03  0.17300000000E+03 0.  1.
<mgrwt>
<rscale>  2 0.19355946E+03</rscale>
<asrwt>0</asrwt>
<pdfrwt beam="1">  1       21 0.59020956E-01 0.19355946E+03</pdfrwt>
<pdfrwt beam="2">  1       21 0.17166875E-01 0.19355946E+03</pdfrwt>
<totfact> 0.82221989E+04</totfact>
</mgrwt>
</event>
<event>
 4    1  0.4349106E+000  0.1789283E+03  0.7546771E-02  0.1168844E+00
         21   -1    0    0  503  502  0.00000000000E+00  0.00000000000E+00  0.50194714139E+02  0.50194714139E+02  0.00000000000E+00 0. -1.
         21   -1    0    0  501  503 -0.00000000000E+00 -0.00000000000E+00 -0.63959813297E+03  0.63959813297E+03  0.00000000000E+00 0. -1.
          6    1    1    2  501    0 -0.16051725218E+02  0.42763232655E+02 -0.27653278945E+03  0.32937172859E+03  0.17300000000E+03 0. -1.
         -6    1    1    2    0  502  0.16051725218E+02 -0.42763232655E+02 -0.31287062938E+03  0.36042111853E+03  0.17300000000E+03 0. -1.
<mgrwt>
<rscale>  2 0.17892834E+03</rscale>
<asrwt>0</asrwt>
<pdfrwt beam="1">  1       21 0.77222636E-02 0.17892834E+03</pdfrwt>
<pdfrwt beam="2">  1       21 0.98399714E-01 0.17892834E+03</pdfrwt>
<totfact> 0.10943076E+05</totfact>
</mgrwt>
</event>
<event>
 4    1  0.4349106E+000  0.1905712E+03  0.7546771E-02  0.1157947E+00
         21   -1    0    0  501  502  0.00000000000E+00  0.00000000000E+00  0.12130136684E+04  0.12130136684E+04  0.00000000000E+00 0.  1.
         21   -1    0    0  502  503 -0.00000000000E+00 -0.00000000000E+00 -0.30470237402E+02  0.30470237402E+02  0.00000000000E+00 0.  1.
          6    1    1    2  501    0 -0.41847074761E+02  0.68096988015E+02  0.67330543893E+03  0.69975537978E+03  0.17300000000E+03 0.  1.
         -6    1    1    2    0  503  0.41847074761E+02 -0.68096988015E+02  0.50923799208E+03  0.54372852603E+03  0.17300000000E+03 0.  1.
<mgrwt>
<rscale>  2 0.19057119E+03</rscale>
<asrwt>0</asrwt>
<pdfrwt beam="1">  1       21 0.18661745E+00 0.19057119E+03</pdfrwt>
<pdfrwt beam="2">  1       21 0.46877298E-02 0.19057119E+03</pdfrwt>
<totfact> 0.49334766E+04</totfact>
</mgrwt>
</event>
<event>
 4    1  0.4349106E+000  0.2931883E+03  0.7546771E-02  0.1088696E+00
         21   -1    0    0  503  502  0.00000000000E+00  0.00000000000E+00  0.41589545560E+03  0.41589545560E+03  0.00000000000E+00 0. -1.
         21   -1    0    0  501  503 -0.00000000000E+00 -0.00000000000E+00 -0.31118072861E+03  0.31118072861E+03  0.00000000000E+00 0. -1.
          6    1    1    2  501    0 -0.21259270734E+02  0.23575080508E+03 -0.15830774636E+03  0.33319775096E+03  0.17300000000E+03 0. -1.
         -6    1    1    2    0  502  0.21259270734E+02 -0.23575080508E+03  0.26302247335E+03  0.39387843324E+03  0.17300000000E+03 0. -1.
<mgrwt>
<rscale>  2 0.29318833E+03</rscale>
<asrwt>0</asrwt>
<pdfrwt beam="1">  1       21 0.63983916E-01 0.29318833E+03</pdfrwt>
<pdfrwt beam="2">  1       21 0.47873958E-01 0.29318833E+03</pdfrwt>
<totfact> 0.88714690E+03</totfact>
</mgrwt>
</event>
<event>
 4    1  0.4349106E+000  0.3937931E+03  0.7546771E-02  0.1045950E+00
         21   -1    0    0  501  502  0.00000000000E+00  0.00000000000E+00  0.63370471149E+03  0.63370471149E+03  0.00000000000E+00 0.  1.
         21   -1    0    0  502  503 -0.00000000000E+00 -0.00000000000E+00 -0.30150005586E+03  0.30150005586E+03  0.00000000000E+00 0.  1.
          6    1    1    2  501    0 -0.29680600744E+03 -0.19248428071E+03 -0.36840846409E+02  0.39551264498E+03  0.17300000000E+03 0.  1.
         -6    1    1    2    0  503  0.29680600744E+03  0.19248428071E+03  0.36904550204E+03  0.53969212237E+03  0.17300000000E+03 0.  1.
<mgrwt>
<rscale>  2 0.39379310E+03</rscale>
<asrwt>0</asrwt>
<pdfrwt beam="1">  1       21 0.97493032E-01 0.39379310E+03</pdfrwt>
<pdfrwt beam="2">  1       21 0.46384624E-01 0.39379310E+03</pdfrwt>
<totfact> 0.34554814E+03</totfact>
</mgrwt>
</event>
<event>
 4    1  0.4349106E+000  0.1948473E+03  0.7546771E-02  0.1154161E+00
         21   -1    0    0  501  502  0.00000000000E+00  0.00000000000E+00  0.22344975284E+04  0.22344975284E+04  0.00000000000E+00 0.  1.
         21   -1    0    0  502  503 -0.00000000000E+00 -0.00000000000E+00 -0.74309009208E+02  0.74309009208E+02  0.00000000000E+00 0. -1.
          6    1    1    2  501    0  0.27627567414E+01  0.89603760262E+02  0.20939679532E+04  0.21030138506E+04  0.17300000000E+03 0.  1.
         -6    1    1    2    0  503 -0.27627567414E+01 -0.89603760262E+02  0.66220565997E+02  0.20579268704E+03  0.17300000000E+03 0. -1.
<mgrwt>
<rscale>  2 0.19484729E+03</rscale>
<asrwt>0</asrwt>
<pdfrwt beam="1">  1       21 0.34376880E+00 0.19484729E+03</pdfrwt>
<pdfrwt beam="2">  1       21 0.11432157E-01 0.19484729E+03</pdfrwt>
<totfact> 0.12137482E+03</totfact>
</mgrwt>
</event>
<event>
 4    1  0.4349106E+000  0.2678485E+03  0.7546771E-02  0.1102517E+00
         21   -1    0    0  501  502  0.00000000000E+00  0.00000000000E+00  0.15768465887E+03  0.15768465887E+03  0.00000000000E+00 0. -1.
         21   -1    0    0  502  503 -0.00000000000E+00 -0.00000000000E+00 -0.45938446734E+03  0.45938446734E+03  0.00000000000E+00 0.  1.
          6    1    1    2  501    0  0.19068819561E+03 -0.73836561143E+02 -0.12062734365E+03  0.29375803265E+03  0.17300000000E+03 0.  1.
         -6    1    1    2    0  503 -0.19068819561E+03  0.73836561143E+02 -0.18107246482E+03  0.32331109357E+03  0.17300000000E+03 0. -1.
<mgrwt>
<rscale>  2 0.26784851E+03</rscale>
<asrwt>0</asrwt>
<pdfrwt beam="1">  1       21 0.24259179E-01 0.26784851E+03</pdfrwt>
<pdfrwt beam="2">  1       21 0.70674533E-01 0.26784851E+03</pdfrwt>
<totfact> 0.28038074E+04</totfact>
</mgrwt>
</event>
<event>
 4    1  0.4349106E+000  0.2273755E+03  0.7546771E-02  0.1128501E+00
         21   -1    0    0  503  502  0.00000000000E+00  0.00000000000E+00  0.85243724854E+02  0.85243724854E+02  0.00000000000E+00 0.  1.
         21   -1    0    0  501  503 -0.00000000000E+00 -0.00000000000E+00 -0.73468565592E+03  0.73468565592E+03  0.00000000000E+00 0.  1.
          6    1    1    2  501    0  0.13280458396E+03  0.64292619268E+02 -0.49597062231E+03  0.54560650345E+03  0.17300000000E+03 0.  1.
         -6    1    1    2    0  502 -0.13280458396E+03 -0.64292619268E+02 -0.15347130875E+03  0.27432287732E+03  0.17300000000E+03 0.  1.
<mgrwt>
<rscale>  2 0.22737546E+03</rscale>
<asrwt>0</asrwt>
<pdfrwt beam="1">  1       21 0.13114419E-01 0.22737546E+03</pdfrwt>
<pdfrwt beam="2">  1       21 0.11302857E+00 0.22737546E+03</pdfrwt>
<totfact> 0.30007278E+04</totfact>
</mgrwt>
</event>
<event>
 4    1  0.4349106E+000  0.2263992E+03  0.7546771E-02  0.1129200E+00
         21   -1    0    0  501  502  0.00000000000E+00  0.00000000000E+00  0.10933665212E+04  0.10933665212E+04  0.00000000000E+00 0. -1.
         21   -1    0    0  502  503 -0.00000000000E+00 -0.00000000000E+00 -0.52360264921E+02  0.52360264921E+02  0.00000000000E+00 0.  1.
          6    1    1    2  501    0 -0.96314945778E+02 -0.10977712132E+03  0.70584211278E+03  0.74126221630E+03  0.17300000000E+03 0. -1.
         -6    1    1    2    0  503  0.96314945778E+02  0.10977712132E+03  0.33516414346E+03  0.40446456978E+03  0.17300000000E+03 0.  1.
<mgrwt>
<rscale>  2 0.22639917E+03</rscale>
<asrwt>0</asrwt>
<pdfrwt beam="1">  1       21 0.16821022E+00 0.22639917E+03</pdfrwt>
<pdfrwt beam="2">  1       21 0.80554262E-02 0.22639917E+03</pdfrwt>
<totfact> 0.25485943E+04</totfact>
</mgrwt>
</event>
<event>
 4    1  0.4349106E+000  0.2578288E+03  0.7546771E-02  0.1108455E+00
         21   -1    0    0  501  502  0.00000000000E+00  0.00000000000E+00  0.76509326446E+03  0.76509326446E+03  0.00000000000E+00 0.  1.
         21   -1    0    0  502  503 -0.00000000000E+00 -0.00000000000E+00 -0.48277785108E+03  0.48277785108E+03  0.00000000000E+00 0.  1.
          6    1    1    2  501    0 -0.72774375742E+02  0.17677829671E+03  0.70616558692E+03  0.75176160590E+03  0.17300000000E+03 0.  1.
         -6    1    1    2    0  503  0.72774375742E+02 -0.17677829671E+03 -0.42385017353E+03  0.49610950964E+03  0.17300000000E+03 0.  1.
<mgrwt>
<rscale>  2 0.25782877E+03</rscale>
<asrwt>0</asrwt>
<pdfrwt beam="1">  1       21 0.11770666E+00 0.25782877E+03</pdfrwt>
<pdfrwt beam="2">  1       21 0.74273516E-01 0.25782877E+03</pdfrwt>
<totfact> 0.84816617E+02</totfact>
</mgrwt>
</event>
<event>
 4    1  0.4349106E+000  0.2276779E+03  0.7546771E-02  0.1128285E+00
         21   -1    0    0  501  502  0.00000000000E+00  0.00000000000E+00  0.34726940249E+02  0.34726940249E+02  0.00000000000E+00 0.  1.
         21   -1    0    0  502  503 -0.00000000000E+00 -0.00000000000E+00 -0.18910173358E+04  0.18910173358E+04  0.00000000000E+00 0.  1.
          6    1    1    2  501    0 -0.63194699366E+02  0.13384566296E+03 -0.48623876573E+03  0.53690350047E+03  0.17300000000E+03 0.  1.
         -6    1    1    2    0  503  0.63194699366E+02 -0.13384566296E+03 -0.13700516298E+04  0.13888407756E+04  0.17300000000E+03 0.  1.
<mgrwt>
<rscale>  2 0.22767791E+03</rscale>
<asrwt>0</asrwt>
<pdfrwt beam="1">  1       21 0.53426047E-02 0.22767791E+03</pdfrwt>
<pdfrwt beam="2">  1       21 0.29092582E+00 0.22767791E+03</pdfrwt>
<totfact> 0.89346553E+03</totfact>
</mgrwt>
</event>
<event>
 4    1  0.4349106E+000  0.2244489E+03  0.7546771E-02  0.1130609E+00
         21   -1    0    0  503  502  0.00000000000E+00  0.00000000000E+00  0.81797360585E+03  0.81797360585E+03  0.00000000000E+00 0.  1.
         21   -1    0    0  501  503 -0.00000000000E+00 -0.00000000000E+00 -0.80357479416E+02  0.80357479416E+02  0.00000000000E+00 0. -1.
          6    1    1    2  501    0  0.13594341205E+03  0.44358679871E+02  0.15172788648E+03  0.27092186197E+03  0.17300000000E+03 0. -1.
         -6    1    1    2    0  502 -0.13594341205E+03 -0.44358679871E+02  0.58588823996E+03  0.62740922330E+03  0.17300000000E+03 0.  1.
<mgrwt>
<rscale>  2 0.22444889E+03</rscale>
<asrwt>0</asrwt>
<pdfrwt beam="1">  1       21 0.12584209E+00 0.22444889E+03</pdfrwt>
<pdfrwt beam="2">  1       21 0.12362690E-01 0.22444889E+03</pdfrwt>
<totfact> 0.25610433E+04</totfact>
</mgrwt>
</event>
<event>
 4    1  0.4349106E+000  0.1855357E+03  0.7546771E-02  0.1162551E+00
         21   -1    0    0  501  502  0.00000000000E+00  0.00000000000E+00  0.16248623997E+04  0.16248623997E+04  0.00000000000E+00 0.  1.
         21   -1    0    0  502  503 -0.00000000000E+00 -0.00000000000E+00 -0.28327263355E+02  0.28327263355E+02  0.00000000000E+00 0.  1.
          6    1    1    2  501    0 -0.35152116770E+02 -0.57086271473E+02  0.12133107322E+04  0.12274145374E+04  0.17300000000E+03 0.  1.
         -6    1    1    2    0  503  0.35152116770E+02  0.57086271473E+02  0.38322440408E+03  0.42577512560E+03  0.17300000000E+03 0.  1.
<mgrwt>
<rscale>  2 0.18553575E+03</rscale>
<asrwt>0</asrwt>
<pdfrwt beam="1">  1       21 0.24997876E+00 0.18553575E+03</pdfrwt>
<pdfrwt beam="2">  1       21 0.43580418E-02 0.18553575E+03</pdfrwt>
<totfact> 0.22707236E+04</totfact>
</mgrwt>
</event>
<event>
 4    1  0.4349106E+000  0.2380119E+03  0.7546771E-02  0.1121124E+00
         21   -1    0    0  501  502  0.00000000000E+00  0.00000000000E+00  0.16158496915E+04  0.16158496915E+04  0.00000000000E+00 0. -1.
         21   -1    0    0  502  503 -0.00000000000E+00 -0.00000000000E+00 -0.11639933866E+03  0.11639933866E+03  0.00000000000E+00 0. -1.
          6    1    1    2  501    0  0.51122090300E+02 -0.15526494205E+03  0.14737587923E+04  0.14928545302E+04  0.17300000000E+03 0. -1.
         -6    1    1    2    0  503 -0.51122090300E+02  0.15526494205E+03  0.25691560545E+02  0.23939450000E+03  0.17300000000E+03 0. -1.
<mgrwt>
<rscale>  2 0.23801191E+03</rscale>
<asrwt>0</asrwt>
<pdfrwt beam="1">  1       21 0.24859224E+00 0.23801191E+03</pdfrwt>
<pdfrwt beam="2">  1       21 0.17907592E-01 0.23801191E+03</pdfrwt>
<totfact> 0.18312468E+03</totfact>
</mgrwt>
</event>
<event>
 4    1  0.4349106E+000  0.2505618E+03  0.7546771E-02  0.1112950E+00
         21   -1    0    0  501  502  0.00000000000E+00  0.00000000000E+00  0.12076714339E+03  0.12076714339E+03  0.00000000000E+00 0. -1.
         21   -1    0    0  502  503 -0.00000000000E+00 -0.00000000000E+00 -0.56319115409E+03  0.56319115409E+03  0.00000000000E+00 0.  1.
          6    1    1    2  501    0  0.17492885318E+03 -0.47456541574E+02 -0.31607661266E+03  0.40334309475E+03  0.17300000000E+03 0.  1.
         -6    1    1    2    0  503 -0.17492885318E+03  0.47456541574E+02 -0.12634739804E+03  0.28061520273E+03  0.17300000000E+03 0. -1.
<mgrwt>
<rscale>  2 0.25056182E+03</rscale>
<asrwt>0</asrwt>
<pdfrwt beam="1">  1       21 0.18579560E-01 0.25056182E+03</pdfrwt>
<pdfrwt beam="2">  1       21 0.86644794E-01 0.25056182E+03</pdfrwt>
<totfact> 0.29471121E+04</totfact>
</mgrwt>
</event>
<event>
 4    1  0.4349106E+000  0.2299552E+03  0.7546771E-02  0.1126671E+00
         21   -1    0    0  503  502  0.00000000000E+00  0.00000000000E+00  0.51617647255E+02  0.51617647255E+02  0.00000000000E+00 0.  1.
         21   -1    0    0  501  503 -0.00000000000E+00 -0.00000000000E+00 -0.13028704536E+04  0.13028704536E+04  0.00000000000E+00 0.  1.
          6    1    1    2  501    0 -0.12310815035E+03 -0.88288055016E+02 -0.93870235027E+03  0.96645822452E+03  0.17300000000E+03 0.  1.
         -6    1    1    2    0  502  0.12310815035E+03  0.88288055016E+02 -0.31255045611E+03  0.38802987637E+03  0.17300000000E+03 0.  1.
<mgrwt>
<rscale>  2 0.22995521E+03</rscale>
<asrwt>0</asrwt>
<pdfrwt beam="1">  1       21 0.79411769E-02 0.22995521E+03</pdfrwt>
<pdfrwt beam="2">  1       21 0.20044160E+00 0.22995521E+03</pdfrwt>
<totfact> 0.15769842E+04</totfact>
</mgrwt>
</event>
<event>
 4    1  0.4349106E+000  0.1824124E+03  0.7546771E-02  0.1165488E+00
         21   -1    0    0  503  502  0.00000000000E+00  0.00000000000E+00  0.17857524240E+03  0.17857524240E+03  0.00000000000E+00 0.  1.
         21   -1    0    0  501  503 -0.00000000000E+00 -0.00000000000E+00 -0.22004584430E+03  0.22004584430E+03  0.00000000000E+00 0.  1.
          6    1    1    2  501    0  0.85161275894E+01 -0.57208165924E+02 -0.98750141795E+02  0.20742682850E+03  0.17300000000E+03 0.  1.
         -6    1    1    2    0  502 -0.85161275894E+01  0.57208165924E+02  0.57279539899E+02  0.19119425820E+03  0.17300000000E+03 0.  1.
<mgrwt>
<rscale>  2 0.18241244E+03</rscale>
<asrwt>0</asrwt>
<pdfrwt beam="1">  1       21 0.27473114E-01 0.18241244E+03</pdfrwt>
<pdfrwt beam="2">  1       21 0.33853207E-01 0.18241244E+03</pdfrwt>
<totfact> 0.10664395E+05</totfact>
</mgrwt>
</event>
<event>
 4    1  0.4349106E+000  0.2535792E+03  0.7546771E-02  0.1111064E+00
         21   -1    0    0  503  502  0.00000000000E+00  0.00000000000E+00  0.17198440472E+04  0.17198440472E+04  0.00000000000E+00 0. -1.
         21   -1    0    0  501  503 -0.00000000000E+00 -0.00000000000E+00 -0.70260481307E+02  0.70260481307E+02  0.00000000000E+00 0.  1.
          6    1    1    2  501    0  0.12879857108E+03  0.13335798717E+03  0.21257442388E+03  0.33089320081E+03  0.17300000000E+03 0.  1.
         -6    1    1    2    0  502 -0.12879857108E+03 -0.13335798717E+03  0.14370091420E+04  0.14592113277E+04  0.17300000000E+03 0. -1.
<mgrwt>
<rscale>  2 0.25357923E+03</rscale>
<asrwt>0</asrwt>
<pdfrwt beam="1">  1       21 0.26459136E+00 0.25357923E+03</pdfrwt>
<pdfrwt beam="2">  1       21 0.10809306E-01 0.25357923E+03</pdfrwt>
<totfact> 0.36402582E+03</totfact>
</mgrwt>
</event>
<event>
 4    1  0.4349106E+000  0.2107252E+03  0.7546771E-02  0.1140993E+00
         21   -1    0    0  503  502  0.00000000000E+00  0.00000000000E+00  0.60954424073E+03  0.60954424073E+03  0.00000000000E+00 0. -1.
         21   -1    0    0  501  503 -0.00000000000E+00 -0.00000000000E+00 -0.17557024340E+03  0.17557024340E+03  0.00000000000E+00 0. -1.
          6    1    1    2  501    0  0.36005601800E+02 -0.11480296099E+03 -0.83279005165E+02  0.22658445647E+03  0.17300000000E+03 0. -1.
         -6    1    1    2    0  502 -0.36005601800E+02  0.11480296099E+03  0.51725300249E+03  0.55853002766E+03  0.17300000000E+03 0. -1.
<mgrwt>
<rscale>  2 0.21072523E+03</rscale>
<asrwt>0</asrwt>
<pdfrwt beam="1">  1       21 0.93776036E-01 0.21072523E+03</pdfrwt>
<pdfrwt beam="2">  1       21 0.27010807E-01 0.21072523E+03</pdfrwt>
<totfact> 0.12320397E+04</totfact>
</mgrwt>
</event>
<event>
 4    1  0.4349106E+000  0.1865118E+03  0.7546771E-02  0.1161646E+00
         21   -1    0    0  501  502  0.00000000000E+00  0.00000000000E+00  0.45278775404E+02  0.45278775404E+02  0.00000000000E+00 0. -1.
         21   -1    0    0  502  503 -0.00000000000E+00 -0.00000000000E+00 -0.22024393181E+04  0.22024393181E+04  0.00000000000E+00 0. -1.
          6    1    1    2  501    0  0.63851036147E+02  0.27941218861E+02 -0.17168123396E+03  0.25349775664E+03  0.17300000000E+03 0. -1.
         -6    1    1    2    0  503 -0.63851036147E+02 -0.27941218861E+02 -0.19854793087E+04  0.19942203369E+04  0.17300000000E+03 0. -1.
<mgrwt>
<rscale>  2 0.18651184E+03</rscale>
<asrwt>0</asrwt>
<pdfrwt beam="1">  1       21 0.69659654E-02 0.18651184E+03</pdfrwt>
<pdfrwt beam="2">  1       21 0.33883682E+00 0.18651184E+03</pdfrwt>
<totfact> 0.31279379E+03</totfact>
</mgrwt>
</event>
<event>
 4    1  0.4349106E+000  0.2459270E+03  0.7546771E-02  0.1115906E+00
         21   -1    0    0  503  502  0.00000000000E+00  0.00000000000E+00  0.36748348858E+03  0.36748348858E+03  0.00000000000E+00 0. -1.
         21   -1    0    0  501  503 -0.00000000000E+00 -0.00000000000E+00 -0.20568752839E+03  0.20568752839E+03  0.00000000000E+00 0. -1.
          6    1    1    2  501    0 -0.15046384768E+03  0.88947777476E+02 -0.47221759090E+02  0.25041959010E+03  0.17300000000E+03 0. -1.
         -6    1    1    2    0  502  0.15046384768E+03 -0.88947777476E+02  0.20901771928E+03  0.32275142687E+03  0.17300000000E+03 0. -1.
<mgrwt>
<rscale>  2 0.24592697E+03</rscale>
<asrwt>0</asrwt>
<pdfrwt beam="1">  1       21 0.56535921E-01 0.24592697E+03</pdfrwt>
<pdfrwt beam="2">  1       21 0.31644235E-01 0.24592697E+03</pdfrwt>
<totfact> 0.27482206E+04</totfact>
</mgrwt>
</event>
<event>
 4    1  0.4349106E+000  0.1995905E+03  0.7546771E-02  0.1150085E+00
         21   -1    0    0  501  502  0.00000000000E+00  0.00000000000E+00  0.50592974777E+02  0.50592974777E+02  0.00000000000E+00 0.  1.
         21   -1    0    0  502  503 -0.00000000000E+00 -0.00000000000E+00 -0.88352152101E+03  0.88352152101E+03  0.00000000000E+00 0.  1.
          6    1    1    2  501    0 -0.36674989154E+02 -0.92532844444E+02 -0.26240233325E+03  0.32968373727E+03  0.17300000000E+03 0.  1.
         -6    1    1    2    0  503  0.36674989154E+02  0.92532844444E+02 -0.57052621299E+03  0.60443075852E+03  0.17300000000E+03 0.  1.
<mgrwt>
<rscale>  2 0.19959054E+03</rscale>
<asrwt>0</asrwt>
<pdfrwt beam="1">  1       21 0.77835354E-02 0.19959054E+03</pdfrwt>
<pdfrwt beam="2">  1       21 0.13592637E+00 0.19959054E+03</pdfrwt>
<totfact> 0.48404873E+04</totfact>
</mgrwt>
</event>
<event>
 4    1  0.4349106E+000  0.1842164E+03  0.7546771E-02  0.1163784E+00
         21   -1    0    0  501  502  0.00000000000E+00  0.00000000000E+00  0.51588806923E+02  0.51588806923E+02  0.00000000000E+00 0. -1.
         21   -1    0    0  502  503 -0.00000000000E+00 -0.00000000000E+00 -0.81911406374E+03  0.81911406374E+03  0.00000000000E+00 0. -1.
          6    1    1    2  501    0  0.28142418606E+02  0.56698071322E+02 -0.19057044171E+03  0.26505237269E+03  0.17300000000E+03 0. -1.
         -6    1    1    2    0  503 -0.28142418606E+02 -0.56698071322E+02 -0.57695481511E+03  0.60565049797E+03  0.17300000000E+03 0. -1.
<mgrwt>
<rscale>  2 0.18421636E+03</rscale>
<asrwt>0</asrwt>
<pdfrwt beam="1">  1       21 0.79367396E-02 0.18421636E+03</pdfrwt>
<pdfrwt beam="2">  1       21 0.12601755E+00 0.18421636E+03</pdfrwt>
<totfact> 0.57117679E+04</totfact>
</mgrwt>
</event>
<event>
 4    1  0.4349106E+000  0.2160928E+03  0.7546771E-02  0.1136830E+00
         21   -1    0    0  503  502  0.00000000000E+00  0.00000000000E+00  0.77857913478E+03  0.77857913478E+03  0.00000000000E+00 0.  1.
         21   -1    0    0  501  503 -0.00000000000E+00 -0.00000000000E+00 -0.85352913277E+02  0.85352913277E+02  0.00000000000E+00 0.  1.
          6    1    1    2  501    0  0.43550645809E+02 -0.12194439056E+03  0.11107593022E+03  0.24296904209E+03  0.17300000000E+03 0.  1.
         -6    1    1    2    0  502 -0.43550645809E+02  0.12194439056E+03  0.58215029128E+03  0.62096300597E+03  0.17300000000E+03 0.  1.
<mgrwt>
<rscale>  2 0.21609279E+03</rscale>
<asrwt>0</asrwt>
<pdfrwt beam="1">  1       21 0.11978140E+00 0.21609279E+03</pdfrwt>
<pdfrwt beam="2">  1       21 0.13131218E-01 0.21609279E+03</pdfrwt>
<totfact> 0.26116562E+04</totfact>
</mgrwt>
</event>
<event>
 4    1  0.4349106E+000  0.1879309E+03  0.7546771E-02  0.1160341E+00
         21   -1    0    0  501  502  0.00000000000E+00  0.00000000000E+00  0.34497330603E+02  0.34497330603E+02  0.00000000000E+00 0. -1.
         21   -1    0    0  502  503 -0.00000000000E+00 -0.00000000000E+00 -0.10491528677E+04  0.10491528677E+04  0.00000000000E+00 0. -1.
          6    1    1    2  501    0 -0.69947675041E+01  0.73076016524E+02 -0.42308420863E+03  0.46294522198E+03  0.17300000000E+03 0. -1.
         -6    1    1    2    0  503  0.69947675041E+01 -0.73076016524E+02 -0.59157132845E+03  0.62070497630E+03  0.17300000000E+03 0. -1.
<mgrwt>
<rscale>  2 0.18793092E+03</rscale>
<asrwt>0</asrwt>
<pdfrwt beam="1">  1       21 0.53072822E-02 0.18793092E+03</pdfrwt>
<pdfrwt beam="2">  1       21 0.16140812E+00 0.18793092E+03</pdfrwt>
<totfact> 0.59908496E+04</totfact>
</mgrwt>
</event>
<event>
 4    1  0.4349106E+000  0.1879809E+03  0.7546771E-02  0.1160295E+00
         21   -1    0    0  501  502  0.00000000000E+00  0.00000000000E+00  0.73124961361E+03  0.73124961361E+03  0.00000000000E+00 0. -1.
         21   -1    0    0  502  503 -0.00000000000E+00 -0.00000000000E+00 -0.89858630574E+02  0.89858630574E+02  0.00000000000E+00 0.  1.
          6    1    1    2  501    0 -0.48574343928E+02  0.55211967905E+02  0.59981889564E+03  0.62858534492E+03  0.17300000000E+03 0. -1.
         -6    1    1    2    0  503  0.48574343928E+02 -0.55211967905E+02  0.41572087394E+02  0.19252289926E+03  0.17300000000E+03 0.  1.
<mgrwt>
<rscale>  2 0.18798093E+03</rscale>
<asrwt>0</asrwt>
<pdfrwt beam="1">  1       21 0.11249994E+00 0.18798093E+03</pdfrwt>
<pdfrwt beam="2">  1       21 0.13824405E-01 0.18798093E+03</pdfrwt>
<totfact> 0.28211865E+04</totfact>
</mgrwt>
</event>
<event>
 4    1  0.4349106E+000  0.2173087E+03  0.7546771E-02  0.1135906E+00
         21   -1    0    0  503  502  0.00000000000E+00  0.00000000000E+00  0.12604868252E+03  0.12604868252E+03  0.00000000000E+00 0.  1.
         21   -1    0    0  501  503 -0.00000000000E+00 -0.00000000000E+00 -0.38798654680E+03  0.38798654680E+03  0.00000000000E+00 0.  1.
          6    1    1    2  501    0  0.13099561706E+03 -0.11584970750E+02 -0.83302224605E+02  0.23272800403E+03  0.17300000000E+03 0.  1.
         -6    1    1    2    0  502 -0.13099561706E+03  0.11584970750E+02 -0.17863563968E+03  0.28130722529E+03  0.17300000000E+03 0.  1.
<mgrwt>
<rscale>  2 0.21730868E+03</rscale>
<asrwt>0</asrwt>
<pdfrwt beam="1">  1       21 0.19392105E-01 0.21730868E+03</pdfrwt>
<pdfrwt beam="2">  1       21 0.59690237E-01 0.21730868E+03</pdfrwt>
<totfact> 0.63355178E+04</totfact>
</mgrwt>
</event>
<event>
 4    1  0.4349106E+000  0.2375644E+03  0.7546771E-02  0.1121426E+00
         21   -1    0    0  501  502  0.00000000000E+00  0.00000000000E+00  0.23581655855E+03  0.23581655855E+03  0.00000000000E+00 0. -1.
         21   -1    0    0  502  503 -0.00000000000E+00 -0.00000000000E+00 -0.63601944544E+03  0.63601944544E+03  0.00000000000E+00 0.  1.
          6    1    1    2  501    0  0.66725725588E+01  0.16267549655E+03  0.14416727943E+03  0.27788674826E+03  0.17300000000E+03 0. -1.
         -6    1    1    2    0  503 -0.66725725588E+01 -0.16267549655E+03 -0.54437016631E+03  0.59394925572E+03  0.17300000000E+03 0.  1.
<mgrwt>
<rscale>  2 0.23756439E+03</rscale>
<asrwt>0</asrwt>
<pdfrwt beam="1">  1       21 0.36279471E-01 0.23756439E+03</pdfrwt>
<pdfrwt beam="2">  1       21 0.97849144E-01 0.23756439E+03</pdfrwt>
<totfact> 0.61333975E+03</totfact>
</mgrwt>
</event>
<event>
 4    1  0.4349106E+000  0.1978066E+03  0.7546771E-02  0.1151603E+00
         21   -1    0    0  503  502  0.00000000000E+00  0.00000000000E+00  0.76224960955E+03  0.76224960955E+03  0.00000000000E+00 0.  1.
         21   -1    0    0  501  503 -0.00000000000E+00 -0.00000000000E+00 -0.51667441888E+02  0.51667441888E+02  0.00000000000E+00 0.  1.
          6    1    1    2  501    0 -0.19814009529E+02  0.93839432620E+02  0.38810501552E+03  0.43560640165E+03  0.17300000000E+03 0.  1.
         -6    1    1    2    0  502  0.19814009529E+02 -0.93839432620E+02  0.32247715215E+03  0.37831064979E+03  0.17300000000E+03 0.  1.
<mgrwt>
<rscale>  2 0.19780656E+03</rscale>
<asrwt>0</asrwt>
<pdfrwt beam="1">  1       21 0.11726916E+00 0.19780656E+03</pdfrwt>
<pdfrwt beam="2">  1       21 0.79488377E-02 0.19780656E+03</pdfrwt>
<totfact> 0.67654973E+04</totfact>
</mgrwt>
</event>
<event>
 4    1  0.4349106E+000  0.1937335E+03  0.7546771E-02  0.1155136E+00
         21   -1    0    0  501  502  0.00000000000E+00  0.00000000000E+00  0.15472956831E+04  0.15472956831E+04  0.00000000000E+00 0.  1.
         21   -1    0    0  502  503 -0.00000000000E+00 -0.00000000000E+00 -0.28840269475E+02  0.28840269475E+02  0.00000000000E+00 0.  1.
          6    1    1    2  501    0 -0.24232257543E+02 -0.83764261471E+02  0.10733904693E+04  0.10907335850E+04  0.17300000000E+03 0.  1.
         -6    1    1    2    0  503  0.24232257543E+02  0.83764261471E+02  0.44506494433E+03  0.48540236760E+03  0.17300000000E+03 0.  1.
<mgrwt>
<rscale>  2 0.19373346E+03</rscale>
<asrwt>0</asrwt>
<pdfrwt beam="1">  1       21 0.23804542E+00 0.19373346E+03</pdfrwt>
<pdfrwt beam="2">  1       21 0.44369657E-02 0.19373346E+03</pdfrwt>
<totfact> 0.25738365E+04</totfact>
</mgrwt>
</event>
<event>
 4    1  0.4349106E+000  0.1749466E+03  0.7546771E-02  0.1172785E+00
         21   -1    0    0  503  502  0.00000000000E+00  0.00000000000E+00  0.80600217487E+02  0.80600217487E+02  0.00000000000E+00 0.  1.
         21   -1    0    0  501  503 -0.00000000000E+00 -0.00000000000E+00 -0.42618981900E+03  0.42618981900E+03  0.00000000000E+00 0.  1.
          6    1    1    2  501    0 -0.72495301359E+01 -0.24995304417E+02 -0.25645815526E+03  0.31044662396E+03  0.17300000000E+03 0.  1.
         -6    1    1    2    0  502  0.72495301359E+01  0.24995304417E+02 -0.89131446251E+02  0.19634341252E+03  0.17300000000E+03 0.  1.
<mgrwt>
<rscale>  2 0.17494662E+03</rscale>
<asrwt>0</asrwt>
<pdfrwt beam="1">  1       21 0.12400034E-01 0.17494662E+03</pdfrwt>
<pdfrwt beam="2">  1       21 0.65567663E-01 0.17494662E+03</pdfrwt>
<totfact> 0.11910863E+05</totfact>
</mgrwt>
</event>
<event>
 4    1  0.4349106E+000  0.1925997E+03  0.7546771E-02  0.1156137E+00
         21   -1    0    0  503  502  0.00000000000E+00  0.00000000000E+00  0.70297673519E+02  0.70297673519E+02  0.00000000000E+00 0.  1.
         21   -1    0    0  501  503 -0.00000000000E+00 -0.00000000000E+00 -0.52814397517E+03  0.52814397517E+03  0.00000000000E+00 0.  1.
          6    1    1    2  501    0  0.81278304795E+02  0.23653291704E+02 -0.22004958732E+03  0.29243197828E+03  0.17300000000E+03 0.  1.
         -6    1    1    2    0  502 -0.81278304795E+02 -0.23653291704E+02 -0.23779671432E+03  0.30600967041E+03  0.17300000000E+03 0.  1.
<mgrwt>
<rscale>  2 0.19259969E+03</rscale>
<asrwt>0</asrwt>
<pdfrwt beam="1">  1       21 0.10815027E-01 0.19259969E+03</pdfrwt>
<pdfrwt beam="2">  1       21 0.81252918E-01 0.19259969E+03</pdfrwt>
<totfact> 0.93791108E+04</totfact>
</mgrwt>
</event>
<event>
 4    1  0.4349106E+000  0.1962854E+03  0.7546771E-02  0.1152911E+00
         21   -1    0    0  501  502  0.00000000000E+00  0.00000000000E+00  0.44527576763E+02  0.44527576763E+02  0.00000000000E+00 0.  1.
         21   -1    0    0  502  503 -0.00000000000E+00 -0.00000000000E+00 -0.87277236392E+03  0.87277236392E+03  0.00000000000E+00 0. -1.
          6    1    1    2  501    0  0.32381058001E+01 -0.92674108339E+02 -0.37157330894E+03  0.42023172132E+03  0.17300000000E+03 0.  1.
         -6    1    1    2    0  503 -0.32381058001E+01  0.92674108339E+02 -0.45667147822E+03  0.49706821937E+03  0.17300000000E+03 0. -1.
<mgrwt>
<rscale>  2 0.19628544E+03</rscale>
<asrwt>0</asrwt>
<pdfrwt beam="1">  1       21 0.68503973E-02 0.19628544E+03</pdfrwt>
<pdfrwt beam="2">  1       21 0.13427266E+00 0.19628544E+03</pdfrwt>
<totfact> 0.62416027E+04</totfact>
</mgrwt>
</event>
<event>
 4    1  0.4349106E+000  0.1913470E+03  0.7546771E-02  0.1157252E+00
         21   -1    0    0  501  502  0.00000000000E+00  0.00000000000E+00  0.27096050911E+02  0.27096050911E+02  0.00000000000E+00 0. -1.
         21   -1    0    0  502  503 -0.00000000000E+00 -0.00000000000E+00 -0.18327682024E+04  0.18327682024E+04  0.00000000000E+00 0. -1.
          6    1    1    2  501    0  0.81758458013E+02 -0.49000744618E+00 -0.42618410528E+03  0.46716868169E+03  0.17300000000E+03 0. -1.
         -6    1    1    2    0  503 -0.81758458013E+02  0.49000744618E+00 -0.13794880462E+04  0.13926955716E+04  0.17300000000E+03 0. -1.
<mgrwt>
<rscale>  2 0.19134703E+03</rscale>
<asrwt>0</asrwt>
<pdfrwt beam="1">  1       21 0.41686235E-02 0.19134703E+03</pdfrwt>
<pdfrwt beam="2">  1       21 0.28196432E+00 0.19134703E+03</pdfrwt>
<totfact> 0.15872110E+04</totfact>
</mgrwt>
</event>
<event>
 4    1  0.4349106E+000  0.1872158E+03  0.7546771E-02  0.1160997E+00
         21   -1    0    0  503  502  0.00000000000E+00  0.00000000000E+00  0.92031749739E+03  0.92031749739E+03  0.00000000000E+00 0. -1.
         21   -1    0    0  501  503 -0.00000000000E+00 -0.00000000000E+00 -0.38887674699E+02  0.38887674699E+02  0.00000000000E+00 0. -1.
          6    1    1    2  501    0 -0.71108622616E+02 -0.80198486425E+01  0.37178569868E+03  0.41626236909E+03  0.17300000000E+03 0. -1.
         -6    1    1    2    0  502  0.71108622616E+02  0.80198486425E+01  0.50964412401E+03  0.54294280299E+03  0.17300000000E+03 0. -1.
<mgrwt>
<rscale>  2 0.18721580E+03</rscale>
<asrwt>0</asrwt>
<pdfrwt beam="1">  1       21 0.14158729E+00 0.18721580E+03</pdfrwt>
<pdfrwt beam="2">  1       21 0.59827199E-02 0.18721580E+03</pdfrwt>
<totfact> 0.69055717E+04</totfact>
</mgrwt>
</event>
<event>
 4    1  0.4349106E+000  0.1781846E+03  0.7546771E-02  0.1169572E+00
         21   -1    0    0  503  502  0.00000000000E+00  0.00000000000E+00  0.14586217422E+03  0.14586217422E+03  0.00000000000E+00 0.  1.
         21   -1    0    0  501  503 -0.00000000000E+00 -0.00000000000E+00 -0.68029290468E+03  0.68029290468E+03  0.00000000000E+00 0.  1.
          6    1    1    2  501    0 -0.21971285523E+02 -0.36578651679E+02 -0.60785677983E+03  0.63343476376E+03  0.17300000000E+03 0.  1.
         -6    1    1    2    0  502  0.21971285523E+02  0.36578651679E+02  0.73426049372E+02  0.19272031515E+03  0.17300000000E+03 0.  1.
<mgrwt>
<rscale>  2 0.17818455E+03</rscale>
<asrwt>0</asrwt>
<pdfrwt beam="1">  1       21 0.22440334E-01 0.17818455E+03</pdfrwt>
<pdfrwt beam="2">  1       21 0.10466045E+00 0.17818455E+03</pdfrwt>
<totfact> 0.13825932E+04</totfact>
</mgrwt>
</event>
<event>
 4    1  0.4349106E+000  0.2250027E+03  0.7546771E-02  0.1130207E+00
         21   -1    0    0  501  502  0.00000000000E+00  0.00000000000E+00  0.19539316448E+04  0.19539316448E+04  0.00000000000E+00 0. -1.
         21   -1    0    0  502  503 -0.00000000000E+00 -0.00000000000E+00 -0.29348437080E+02  0.29348437080E+02  0.00000000000E+00 0.  1.
          6    1    1    2  501    0  0.12557414076E+03 -0.70202109154E+02  0.13017195019E+04  0.13210222794E+04  0.17300000000E+03 0. -1.
         -6    1    1    2    0  503 -0.12557414076E+03  0.70202109154E+02  0.62286370575E+03  0.66225780244E+03  0.17300000000E+03 0.  1.
<mgrwt>
<rscale>  2 0.22500267E+03</rscale>
<asrwt>0</asrwt>
<pdfrwt beam="1">  1       21 0.30060477E+00 0.22500267E+03</pdfrwt>
<pdfrwt beam="2">  1       21 0.45151457E-02 0.22500267E+03</pdfrwt>
<totfact> 0.10476292E+04</totfact>
</mgrwt>
</event>
<event>
 4    1  0.4349106E+000  0.1825519E+03  0.7546771E-02  0.1165356E+00
         21   -1    0    0  501  502  0.00000000000E+00  0.00000000000E+00  0.37544891104E+03  0.37544891104E+03  0.00000000000E+00 0. -1.
         21   -1    0    0  502  503 -0.00000000000E+00 -0.00000000000E+00 -0.31239396170E+03  0.31239396170E+03  0.00000000000E+00 0. -1.
          6    1    1    2  501    0 -0.53806051390E+02 -0.22385518637E+02 -0.25946106518E+03  0.31724635058E+03  0.17300000000E+03 0. -1.
         -6    1    1    2    0  503  0.53806051390E+02  0.22385518637E+02  0.32251601453E+03  0.37059652216E+03  0.17300000000E+03 0. -1.
<mgrwt>
<rscale>  2 0.18255192E+03</rscale>
<asrwt>0</asrwt>
<pdfrwt beam="1">  1       21 0.57761371E-01 0.18255192E+03</pdfrwt>
<pdfrwt beam="2">  1       21 0.48060609E-01 0.18255192E+03</pdfrwt>
<totfact> 0.11707740E+04</totfact>
</mgrwt>
</event>
<event>
 4    1  0.4349106E+000  0.3167122E+03  0.7546771E-02  0.1077172E+00
         21   -1    0    0  503  502  0.00000000000E+00  0.00000000000E+00  0.46001226423E+03  0.46001226423E+03  0.00000000000E+00 0. -1.
         21   -1    0    0  501  503 -0.00000000000E+00 -0.00000000000E+00 -0.22186065529E+03  0.22186065529E+03  0.00000000000E+00 0.  1.
          6    1    1    2  501    0 -0.25731081734E+03 -0.64566146235E+02  0.16374549801E+03  0.35653784102E+03  0.17300000000E+03 0.  1.
         -6    1    1    2    0  502  0.25731081734E+03  0.64566146235E+02  0.74406110925E+02  0.32533507850E+03  0.17300000000E+03 0. -1.
<mgrwt>
<rscale>  2 0.31671224E+03</rscale>
<asrwt>0</asrwt>
<pdfrwt beam="1">  1       21 0.70771117E-01 0.31671224E+03</pdfrwt>
<pdfrwt beam="2">  1       21 0.34132409E-01 0.31671224E+03</pdfrwt>
<totfact> 0.14033604E+04</totfact>
</mgrwt>
</event>
<event>
 4    1  0.4349106E+000  0.1778938E+03  0.7546771E-02  0.1169857E+00
         21   -1    0    0  501  502  0.00000000000E+00  0.00000000000E+00  0.17762714390E+03  0.17762714390E+03  0.00000000000E+00 0. -1.
         21   -1    0    0  502  503 -0.00000000000E+00 -0.00000000000E+00 -0.48361785659E+03  0.48361785659E+03  0.00000000000E+00 0. -1.
          6    1    1    2  501    0 -0.13898440770E+02 -0.39039104415E+02  0.10976281212E+03  0.20903132123E+03  0.17300000000E+03 0. -1.
         -6    1    1    2    0  503  0.13898440770E+02  0.39039104415E+02 -0.41575352481E+03  0.45221367927E+03  0.17300000000E+03 0. -1.
<mgrwt>
<rscale>  2 0.17789384E+03</rscale>
<asrwt>0</asrwt>
<pdfrwt beam="1">  1       21 0.27327253E-01 0.17789384E+03</pdfrwt>
<pdfrwt beam="2">  1       21 0.74402747E-01 0.17789384E+03</pdfrwt>
<totfact> 0.20851577E+04</totfact>
</mgrwt>
</event>
<event>
 4    1  0.4349106E+000  0.2032720E+03  0.7546771E-02  0.1147007E+00
         21   -1    0    0  503  502  0.00000000000E+00  0.00000000000E+00  0.93281758254E+03  0.93281758254E+03  0.00000000000E+00 0. -1.
         21   -1    0    0  501  503 -0.00000000000E+00 -0.00000000000E+00 -0.80067283555E+02  0.80067283555E+02  0.00000000000E+00 0. -1.
          6    1    1    2  501    0  0.10601499073E+03  0.12301268703E+02  0.87863492375E+02  0.22144862331E+03  0.17300000000E+03 0. -1.
         -6    1    1    2    0  502 -0.10601499073E+03 -0.12301268703E+02  0.76488680661E+03  0.79143624279E+03  0.17300000000E+03 0. -1.
<mgrwt>
<rscale>  2 0.20327198E+03</rscale>
<asrwt>0</asrwt>
<pdfrwt beam="1">  1       21 0.14351039E+00 0.20327198E+03</pdfrwt>
<pdfrwt beam="2">  1       21 0.12318044E-01 0.20327198E+03</pdfrwt>
<totfact> 0.18657156E+04</totfact>
</mgrwt>
</event>
<event>
 4    1  0.4349106E+000  0.1966799E+03  0.7546771E-02  0.1152571E+00
         21   -1    0    0  503  502  0.00000000000E+00  0.00000000000E+00  0.44979994256E+02  0.44979994256E+02  0.00000000000E+00 0.  1.
         21   -1    0    0  501  503 -0.00000000000E+00 -0.00000000000E+00 -0.11255100439E+04  0.11255100439E+04  0.00000000000E+00 0.  1.
          6    1    1    2  501    0  0.37225485749E+02 -0.85838444775E+02 -0.82451487014E+03  0.84764836252E+03  0.17300000000E+03 0.  1.
         -6    1    1    2    0  502 -0.37225485749E+02  0.85838444775E+02 -0.25601517947E+03  0.32284167561E+03  0.17300000000E+03 0.  1.
<mgrwt>
<rscale>  2 0.19667988E+03</rscale>
<asrwt>0</asrwt>
<pdfrwt beam="1">  1       21 0.69199989E-02 0.19667988E+03</pdfrwt>
<pdfrwt beam="2">  1       21 0.17315540E+00 0.19667988E+03</pdfrwt>
<totfact> 0.31211457E+04</totfact>
</mgrwt>
</event>
<event>
 4    1  0.4349106E+000  0.3032011E+03  0.7546771E-02  0.1083651E+00
         21   -1    0    0  503  502  0.00000000000E+00  0.00000000000E+00  0.56826551920E+03  0.56826551920E+03  0.00000000000E+00 0.  1.
         21   -1    0    0  501  503 -0.00000000000E+00 -0.00000000000E+00 -0.19448655409E+03  0.19448655409E+03  0.00000000000E+00 0. -1.
          6    1    1    2  501    0 -0.11070789213E+03  0.22303743783E+03  0.30480478985E+02  0.30472938102E+03  0.17300000000E+03 0. -1.
         -6    1    1    2    0  502  0.11070789213E+03 -0.22303743783E+03  0.34329848613E+03  0.45802269227E+03  0.17300000000E+03 0.  1.
<mgrwt>
<rscale>  2 0.30320115E+03</rscale>
<asrwt>0</asrwt>
<pdfrwt beam="1">  1       21 0.87425464E-01 0.30320115E+03</pdfrwt>
<pdfrwt beam="2">  1       21 0.29921008E-01 0.30320115E+03</pdfrwt>
<totfact> 0.11317275E+04</totfact>
</mgrwt>
</event>
<event>
 4    1  0.4349106E+000  0.1734572E+03  0.7546771E-02  0.1174290E+00
         21   -1    0    0  503  502  0.00000000000E+00  0.00000000000E+00  0.49956003050E+03  0.49956003050E+03  0.00000000000E+00 0.  1.
         21   -1    0    0  501  503 -0.00000000000E+00 -0.00000000000E+00 -0.82227806463E+02  0.82227806463E+02  0.00000000000E+00 0.  1.
          6    1    1    2  501    0  0.12538745862E+02  0.10802056047E+01  0.58200594825E+02  0.18296091449E+03  0.17300000000E+03 0.  1.
         -6    1    1    2    0  502 -0.12538745862E+02 -0.10802056047E+01  0.35913162922E+03  0.39882692248E+03  0.17300000000E+03 0.  1.
<mgrwt>
<rscale>  2 0.17345716E+03</rscale>
<asrwt>0</asrwt>
<pdfrwt beam="1">  1       21 0.76855387E-01 0.17345716E+03</pdfrwt>
<pdfrwt beam="2">  1       21 0.12650432E-01 0.17345716E+03</pdfrwt>
<totfact> 0.81018092E+04</totfact>
</mgrwt>
</event>
<event>
 4    1  0.4349106E+000  0.1806822E+03  0.7546771E-02  0.1167144E+00
         21   -1    0    0  503  502  0.00000000000E+00  0.00000000000E+00  0.13135673399E+03  0.13135673399E+03  0.00000000000E+00 0. -1.
         21   -1    0    0  501  503 -0.00000000000E+00 -0.00000000000E+00 -0.26548409681E+03  0.26548409681E+03  0.00000000000E+00 0. -1.
          6    1    1    2  501    0  0.51436808999E+02  0.84451833914E+01 -0.11720625695E+03  0.21536799463E+03  0.17300000000E+03 0. -1.
         -6    1    1    2    0  502 -0.51436808999E+02 -0.84451833914E+01 -0.16921105867E+02  0.18147283617E+03  0.17300000000E+03 0. -1.
<mgrwt>
<rscale>  2 0.18068223E+03</rscale>
<asrwt>0</asrwt>
<pdfrwt beam="1">  1       21 0.20208729E-01 0.18068223E+03</pdfrwt>
<pdfrwt beam="2">  1       21 0.40843707E-01 0.18068223E+03</pdfrwt>
<totfact> 0.13126250E+05</totfact>
</mgrwt>
</event>
<event>
 4    1  0.4349106E+000  0.1855467E+03  0.7546771E-02  0.1162540E+00
         21   -1    0    0  503  502  0.00000000000E+00  0.00000000000E+00  0.70538455454E+03  0.70538455454E+03  0.00000000000E+00 0.  1.
         21   -1    0    0  501  503 -0.00000000000E+00 -0.00000000000E+00 -0.52797252552E+02  0.52797252552E+02  0.00000000000E+00 0.  1.
          6    1    1    2  501    0 -0.51244437634E+02 -0.43273319300E+02  0.22207438000E+03  0.28938659748E+03  0.17300000000E+03 0.  1.
         -6    1    1    2    0  502  0.51244437634E+02  0.43273319300E+02  0.43051292199E+03  0.46879520961E+03  0.17300000000E+03 0.  1.
<mgrwt>
<rscale>  2 0.18554669E+03</rscale>
<asrwt>0</asrwt>
<pdfrwt beam="1">  1       21 0.10852069E+00 0.18554669E+03</pdfrwt>
<pdfrwt beam="2">  1       21 0.81226547E-02 0.18554669E+03</pdfrwt>
<totfact> 0.79114712E+04</totfact>
</mgrwt>
</event>
<event>
 4    1  0.4349106E+000  0.3228269E+03  0.7546771E-02  0.1074356E+00
         21   -1    0    0  503  502  0.00000000000E+00  0.00000000000E+00  0.42320128898E+03  0.42320128898E+03  0.00000000000E+00 0. -1.
         21   -1    0    0  501  503 -0.00000000000E+00 -0.00000000000E+00 -0.29574272345E+03  0.29574272345E+03  0.00000000000E+00 0.  1.
          6    1    1    2  501    0  0.21629206495E+03  0.16584915538E+03 -0.83311723171E+02  0.33340372361E+03  0.17300000000E+03 0.  1.
         -6    1    1    2    0  502 -0.21629206495E+03 -0.16584915538E+03  0.21077028871E+03  0.38554028882E+03  0.17300000000E+03 0. -1.
<mgrwt>
<rscale>  2 0.32282689E+03</rscale>
<asrwt>0</asrwt>
<pdfrwt beam="1">  1       21 0.65107891E-01 0.32282689E+03</pdfrwt>
<pdfrwt beam="2">  1       21 0.45498880E-01 0.32282689E+03</pdfrwt>
<totfact> 0.93701658E+03</totfact>
</mgrwt>
</event>
<event>
 4    1  0.4349106E+000  0.2848803E+03  0.7546771E-02  0.1093053E+00
         21   -1    0    0  501  502  0.00000000000E+00  0.00000000000E+00  0.16612529234E+03  0.16612529234E+03  0.00000000000E+00 0.  1.
         21   -1    0    0  502  503 -0.00000000000E+00 -0.00000000000E+00 -0.55803034783E+03  0.55803034783E+03  0.00000000000E+00 0. -1.
          6    1    1    2  501    0 -0.34421640223E+02  0.22370272342E+03 -0.68169076637E+02  0.29292282395E+03  0.17300000000E+03 0.  1.
         -6    1    1    2    0  503  0.34421640223E+02 -0.22370272342E+03 -0.32373597885E+03  0.43123281622E+03  0.17300000000E+03 0. -1.
<mgrwt>
<rscale>  2 0.28488025E+03</rscale>
<asrwt>0</asrwt>
<pdfrwt beam="1">  1       21 0.25557737E-01 0.28488025E+03</pdfrwt>
<pdfrwt beam="2">  1       21 0.85850823E-01 0.28488025E+03</pdfrwt>
<totfact> 0.16184032E+04</totfact>
</mgrwt>
</event>
<event>
 4    1  0.4349106E+000  0.1791843E+03  0.7546771E-02  0.1168595E+00
         21   -1    0    0  501  502  0.00000000000E+00  0.00000000000E+00  0.21730776106E+03  0.21730776106E+03  0.00000000000E+00 0. -1.
         21   -1    0    0  502  503 -0.00000000000E+00 -0.00000000000E+00 -0.14904125915E+03  0.14904125915E+03  0.00000000000E+00 0. -1.
          6    1    1    2  501    0  0.43888458917E+01  0.46462450518E+02  0.17077394483E+02  0.17999627407E+03  0.17300000000E+03 0. -1.
         -6    1    1    2    0  503 -0.43888458917E+01 -0.46462450518E+02  0.51189107431E+02  0.18635274615E+03  0.17300000000E+03 0. -1.
<mgrwt>
<rscale>  2 0.17918432E+03</rscale>
<asrwt>0</asrwt>
<pdfrwt beam="1">  1       21 0.33431963E-01 0.17918432E+03</pdfrwt>
<pdfrwt beam="2">  1       21 0.22929424E-01 0.17918432E+03</pdfrwt>
<totfact> 0.15448470E+05</totfact>
</mgrwt>
</event>
<event>
 4    1  0.4349106E+000  0.2262200E+03  0.7546771E-02  0.1129329E+00
         21   -1    0    0  503  502  0.00000000000E+00  0.00000000000E+00  0.31218610494E+03  0.31218610494E+03  0.00000000000E+00 0.  1.
         21   -1    0    0  501  503 -0.00000000000E+00 -0.00000000000E+00 -0.20146250003E+03  0.20146250003E+03  0.00000000000E+00 0.  1.
          6    1    1    2  501    0 -0.12898649867E+03 -0.67889398403E+02 -0.55495584880E+02  0.23292755783E+03  0.17300000000E+03 0.  1.
         -6    1    1    2    0  502  0.12898649867E+03  0.67889398403E+02  0.16621918980E+03  0.28072104715E+03  0.17300000000E+03 0.  1.
<mgrwt>
<rscale>  2 0.22622000E+03</rscale>
<asrwt>0</asrwt>
<pdfrwt beam="1">  1       21 0.48028631E-01 0.22622000E+03</pdfrwt>
<pdfrwt beam="2">  1       21 0.30994231E-01 0.22622000E+03</pdfrwt>
<totfact> 0.40745515E+04</totfact>
</mgrwt>
</event>
<event>
 4    1  0.4349106E+000  0.2363662E+03  0.7546771E-02  0.1122238E+00
         21   -1    0    0  503  502  0.00000000000E+00  0.00000000000E+00  0.64355463747E+03  0.64355463747E+03  0.00000000000E+00 0. -1.
         21   -1    0    0  501  503 -0.00000000000E+00 -0.00000000000E+00 -0.10816151825E+03  0.10816151825E+03  0.00000000000E+00 0. -1.
          6    1    1    2  501    0 -0.11049736766E+03 -0.11717634117E+03  0.43467888663E+03  0.49478752781E+03  0.17300000000E+03 0.  1.
         -6    1    1    2    0  502  0.11049736766E+03  0.11717634117E+03  0.10071423259E+03  0.25692862790E+03  0.17300000000E+03 0.  1.
<mgrwt>
<rscale>  2 0.23636616E+03</rscale>
<asrwt>0</asrwt>
<pdfrwt beam="1">  1       21 0.99008404E-01 0.23636616E+03</pdfrwt>
<pdfrwt beam="2">  1       21 0.16640234E-01 0.23636616E+03</pdfrwt>
<totfact> 0.26626811E+04</totfact>
</mgrwt>
</event>
<event>
 4    1  0.4349106E+000  0.1888387E+03  0.7546771E-02  0.1159513E+00
         21   -1    0    0  503  502  0.00000000000E+00  0.00000000000E+00  0.11739846172E+03  0.11739846172E+03  0.00000000000E+00 0. -1.
         21   -1    0    0  501  503 -0.00000000000E+00 -0.00000000000E+00 -0.52720623161E+03  0.52720623161E+03  0.00000000000E+00 0.  1.
          6    1    1    2  501    0  0.29350828006E+02  0.69782379502E+02 -0.41473370585E+03  0.45570176472E+03  0.17300000000E+03 0.  1.
         -6    1    1    2    0  502 -0.29350828006E+02 -0.69782379502E+02  0.49259359685E+01  0.18890292861E+03  0.17300000000E+03 0. -1.
<mgrwt>
<rscale>  2 0.18883869E+03</rscale>
<asrwt>0</asrwt>
<pdfrwt beam="1">  1       21 0.18061302E-01 0.18883869E+03</pdfrwt>
<pdfrwt beam="2">  1       21 0.81108651E-01 0.18883869E+03</pdfrwt>
<totfact> 0.37269485E+04</totfact>
</mgrwt>
</event>
<event>
 4    1  0.4349106E+000  0.2024494E+03  0.7546771E-02  0.1147689E+00
         21   -1    0    0  501  502  0.00000000000E+00  0.00000000000E+00  0.13975616173E+03  0.13975616173E+03  0.00000000000E+00 0. -1.
         21   -1    0    0  502  503 -0.00000000000E+00 -0.00000000000E+00 -0.31855455784E+03  0.31855455784E+03  0.00000000000E+00 0. -1.
          6    1    1    2  501    0 -0.10450050601E+03 -0.11678629449E+02 -0.24833897076E+02  0.20396683207E+03  0.17300000000E+03 0. -1.
         -6    1    1    2    0  503  0.10450050601E+03  0.11678629449E+02 -0.15396449904E+03  0.25434388750E+03  0.17300000000E+03 0. -1.
<mgrwt>
<rscale>  2 0.20244937E+03</rscale>
<asrwt>0</asrwt>
<pdfrwt beam="1">  1       21 0.21500948E-01 0.20244937E+03</pdfrwt>
<pdfrwt beam="2">  1       21 0.49008393E-01 0.20244937E+03</pdfrwt>
<totfact> 0.79732553E+04</totfact>
</mgrwt>
</event>
<event>
 4    1  0.4349106E+000  0.1747751E+03  0.7546771E-02  0.1172958E+00
         21   -1    0    0  501  502  0.00000000000E+00  0.00000000000E+00  0.20797218188E+03  0.20797218188E+03  0.00000000000E+00 0.  1.
         21   -1    0    0  502  503 -0.00000000000E+00 -0.00000000000E+00 -0.25584709556E+03  0.25584709556E+03  0.00000000000E+00 0.  1.
          6    1    1    2  501    0  0.15046099120E+00  0.24845712241E+02  0.12741246516E+03  0.21628746689E+03  0.17300000000E+03 0.  1.
         -6    1    1    2    0  503 -0.15046099120E+00 -0.24845712241E+02 -0.17528737884E+03  0.24753181055E+03  0.17300000000E+03 0.  1.
<mgrwt>
<rscale>  2 0.17477509E+03</rscale>
<asrwt>0</asrwt>
<pdfrwt beam="1">  1       21 0.31995721E-01 0.17477509E+03</pdfrwt>
<pdfrwt beam="2">  1       21 0.39361091E-01 0.17477509E+03</pdfrwt>
<totfact> 0.58933303E+04</totfact>
</mgrwt>
</event>
<event>
 4    1  0.4349106E+000  0.1798141E+03  0.7546771E-02  0.1167983E+00
         21   -1    0    0  501  502  0.00000000000E+00  0.00000000000E+00  0.14987491349E+03  0.14987491349E+03  0.00000000000E+00 0.  1.
         21   -1    0    0  502  503 -0.00000000000E+00 -0.00000000000E+00 -0.24697901921E+03  0.24697901921E+03  0.00000000000E+00 0. -1.
          6    1    1    2  501    0 -0.30686162555E+02  0.38242126312E+02  0.22024704236E+02  0.18115791011E+03  0.17300000000E+03 0.  1.
         -6    1    1    2    0  503  0.30686162555E+02 -0.38242126312E+02 -0.11912880996E+03  0.21569602258E+03  0.17300000000E+03 0. -1.
<mgrwt>
<rscale>  2 0.17981407E+03</rscale>
<asrwt>0</asrwt>
<pdfrwt beam="1">  1       21 0.23057679E-01 0.17981407E+03</pdfrwt>
<pdfrwt beam="2">  1       21 0.37996772E-01 0.17981407E+03</pdfrwt>
<totfact> 0.11853038E+05</totfact>
</mgrwt>
</event>
<event>
 4    1  0.4349106E+000  0.1805970E+03  0.7546771E-02  0.1167227E+00
         21   -1    0    0  503  502  0.00000000000E+00  0.00000000000E+00  0.32123887369E+03  0.32123887369E+03  0.00000000000E+00 0. -1.
         21   -1    0    0  501  503 -0.00000000000E+00 -0.00000000000E+00 -0.20506996021E+03  0.20506996021E+03  0.00000000000E+00 0.  1.
          6    1    1    2  501    0  0.79162712269E+01  0.51221094891E+02 -0.12890382358E+03  0.22188164333E+03  0.17300000000E+03 0.  1.
         -6    1    1    2    0  502 -0.79162712269E+01 -0.51221094891E+02  0.24507273706E+03  0.30442719057E+03  0.17300000000E+03 0. -1.
<mgrwt>
<rscale>  2 0.18059698E+03</rscale>
<asrwt>0</asrwt>
<pdfrwt beam="1">  1       21 0.49421365E-01 0.18059698E+03</pdfrwt>
<pdfrwt beam="2">  1       21 0.31549225E-01 0.18059698E+03</pdfrwt>
<totfact> 0.37933596E+04</totfact>
</mgrwt>
</event>
<event>
 4    1  0.4349106E+000  0.2219675E+03  0.7546771E-02  0.1132425E+00
         21   -1    0    0  501  502  0.00000000000E+00  0.00000000000E+00  0.59768817998E+03  0.59768817998E+03  0.00000000000E+00 0.  1.
         21   -1    0    0  502  503 -0.00000000000E+00 -0.00000000000E+00 -0.82928351814E+02  0.82928351814E+02  0.00000000000E+00 0. -1.
          6    1    1    2  501    0 -0.78525662425E+02 -0.11477924734E+03  0.28366678934E+03  0.36018939831E+03  0.17300000000E+03 0.  1.
         -6    1    1    2    0  503  0.78525662425E+02  0.11477924734E+03  0.23109303883E+03  0.32042713349E+03  0.17300000000E+03 0. -1.
<mgrwt>
<rscale>  2 0.22196746E+03</rscale>
<asrwt>0</asrwt>
<pdfrwt beam="1">  1       21 0.91952025E-01 0.22196746E+03</pdfrwt>
<pdfrwt beam="2">  1       21 0.12758208E-01 0.22196746E+03</pdfrwt>
<totfact> 0.51809819E+04</totfact>
</mgrwt>
</event>
<event>
 4    1  0.4349106E+000  0.1834104E+03  0.7546771E-02  0.1164543E+00
         21   -1    0    0  501  502  0.00000000000E+00  0.00000000000E+00  0.42890932409E+02  0.42890932409E+02  0.00000000000E+00 0.  1.
         21   -1    0    0  502  503 -0.00000000000E+00 -0.00000000000E+00 -0.78524925528E+03  0.78524925528E+03  0.00000000000E+00 0.  1.
          6    1    1    2  501    0  0.49914653176E+02 -0.34912630218E+02 -0.35678357781E+03  0.40116565873E+03  0.17300000000E+03 0.  1.
         -6    1    1    2    0  503 -0.49914653176E+02  0.34912630218E+02 -0.38557474506E+03  0.42697452896E+03  0.17300000000E+03 0.  1.
<mgrwt>
<rscale>  2 0.18341037E+03</rscale>
<asrwt>0</asrwt>
<pdfrwt beam="1">  1       21 0.65986050E-02 0.18341037E+03</pdfrwt>
<pdfrwt beam="2">  1       21 0.12080758E+00 0.18341037E+03</pdfrwt>
<totfact> 0.87346897E+04</totfact>
</mgrwt>
</event>
<event>
 4    1  0.4349106E+000  0.1751571E+03  0.7546771E-02  0.1172574E+00
         21   -1    0    0  503  502  0.00000000000E+00  0.00000000000E+00  0.30171888884E+03  0.30171888884E+03  0.00000000000E+00 0. -1.
         21   -1    0    0  501  503 -0.00000000000E+00 -0.00000000000E+00 -0.10476052642E+03  0.10476052642E+03  0.00000000000E+00 0. -1.
          6    1    1    2  501    0 -0.64163782257E+01 -0.26642706554E+02  0.63650637363E+02  0.18636364280E+03  0.17300000000E+03 0. -1.
         -6    1    1    2    0  502  0.64163782257E+01  0.26642706554E+02  0.13330772505E+03  0.22011577245E+03  0.17300000000E+03 0. -1.
<mgrwt>
<rscale>  2 0.17515708E+03</rscale>
<asrwt>0</asrwt>
<pdfrwt beam="1">  1       21 0.46418290E-01 0.17515708E+03</pdfrwt>
<pdfrwt beam="2">  1       21 0.16117004E-01 0.17515708E+03</pdfrwt>
<totfact> 0.15382040E+05</totfact>
</mgrwt>
</event>
<event>
 4    1  0.4349106E+000  0.1822210E+03  0.7546771E-02  0.1165671E+00
         21   -1    0    0  501  502  0.00000000000E+00  0.00000000000E+00  0.13626655579E+03  0.13626655579E+03  0.00000000000E+00 0.  1.
         21   -1    0    0  502  503 -0.00000000000E+00 -0.00000000000E+00 -0.12267616942E+04  0.12267616942E+04  0.00000000000E+00 0.  1.
          6    1    1    2  501    0  0.22810741546E+02 -0.52489519379E+02  0.64838502756E+02  0.19341279951E+03  0.17300000000E+03 0.  1.
         -6    1    1    2    0  503 -0.22810741546E+02  0.52489519379E+02 -0.11553336411E+04  0.11696154504E+04  0.17300000000E+03 0.  1.
<mgrwt>
<rscale>  2 0.18222096E+03</rscale>
<asrwt>0</asrwt>
<pdfrwt beam="1">  1       21 0.20964085E-01 0.18222096E+03</pdfrwt>
<pdfrwt beam="2">  1       21 0.18873257E+00 0.18222096E+03</pdfrwt>
<totfact> 0.33949546E+03</totfact>
</mgrwt>
</event>
<event>
 4    1  0.4349106E+000  0.2018294E+03  0.7546771E-02  0.1148205E+00
         21   -1    0    0  503  502  0.00000000000E+00  0.00000000000E+00  0.54009659593E+02  0.54009659593E+02  0.00000000000E+00 0. -1.
         21   -1    0    0  501  503 -0.00000000000E+00 -0.00000000000E+00 -0.87062539605E+03  0.87062539605E+03  0.00000000000E+00 0. -1.
          6    1    1    2  501    0 -0.93716155627E+02 -0.44982155086E+02 -0.57735705766E+03  0.61161775983E+03  0.17300000000E+03 0. -1.
         -6    1    1    2    0  502  0.93716155627E+02  0.44982155086E+02 -0.23925867879E+03  0.31301729581E+03  0.17300000000E+03 0. -1.
<mgrwt>
<rscale>  2 0.20182941E+03</rscale>
<asrwt>0</asrwt>
<pdfrwt beam="1">  1       21 0.83091776E-02 0.20182941E+03</pdfrwt>
<pdfrwt beam="2">  1       21 0.13394238E+00 0.20182941E+03</pdfrwt>
<totfact> 0.44786826E+04</totfact>
</mgrwt>
</event>
<event>
 4    1  0.4349106E+000  0.2008163E+03  0.7546771E-02  0.1149052E+00
         21   -1    0    0  501  502  0.00000000000E+00  0.00000000000E+00  0.69978546294E+02  0.69978546294E+02  0.00000000000E+00 0.  1.
         21   -1    0    0  502  503 -0.00000000000E+00 -0.00000000000E+00 -0.74048137688E+03  0.74048137688E+03  0.00000000000E+00 0.  1.
          6    1    1    2  501    0 -0.94475857511E+02 -0.38373326950E+02 -0.14442716247E+03  0.24735885901E+03  0.17300000000E+03 0.  1.
         -6    1    1    2    0  503  0.94475857511E+02  0.38373326950E+02 -0.52607566812E+03  0.56310106416E+03  0.17300000000E+03 0.  1.
<mgrwt>
<rscale>  2 0.20081633E+03</rscale>
<asrwt>0</asrwt>
<pdfrwt beam="1">  1       21 0.10765931E-01 0.20081633E+03</pdfrwt>
<pdfrwt beam="2">  1       21 0.11392021E+00 0.20081633E+03</pdfrwt>
<totfact> 0.42524264E+04</totfact>
</mgrwt>
</event>
<event>
 4    1  0.4349106E+000  0.2351626E+03  0.7546771E-02  0.1123058E+00
         21   -1    0    0  501  502  0.00000000000E+00  0.00000000000E+00  0.75952160973E+03  0.75952160973E+03  0.00000000000E+00 0.  1.
         21   -1    0    0  502  503 -0.00000000000E+00 -0.00000000000E+00 -0.92364465936E+02  0.92364465936E+02  0.00000000000E+00 0. -1.
          6    1    1    2  501    0  0.15927799978E+03 -0.17168296691E+01  0.52955885802E+03  0.57942558868E+03  0.17300000000E+03 0.  1.
         -6    1    1    2    0  503 -0.15927799978E+03  0.17168296691E+01  0.13759828577E+03  0.27246048698E+03  0.17300000000E+03 0. -1.
<mgrwt>
<rscale>  2 0.23516256E+03</rscale>
<asrwt>0</asrwt>
<pdfrwt beam="1">  1       21 0.11684947E+00 0.23516256E+03</pdfrwt>
<pdfrwt beam="2">  1       21 0.14209918E-01 0.23516256E+03</pdfrwt>
<totfact> 0.23812708E+04</totfact>
</mgrwt>
</event>
<event>
 4    1  0.4349106E+000  0.1761371E+03  0.7546771E-02  0.1171595E+00
         21   -1    0    0  501  502  0.00000000000E+00  0.00000000000E+00  0.86370201160E+03  0.86370201160E+03  0.00000000000E+00 0. -1.
         21   -1    0    0  502  503 -0.00000000000E+00 -0.00000000000E+00 -0.36018229837E+02  0.36018229837E+02  0.00000000000E+00 0. -1.
          6    1    1    2  501    0  0.14491361448E+02  0.29753361513E+02  0.43732298108E+03  0.47146118807E+03  0.17300000000E+03 0. -1.
         -6    1    1    2    0  503 -0.14491361448E+02 -0.29753361513E+02  0.39036080068E+03  0.42825905336E+03  0.17300000000E+03 0. -1.
<mgrwt>
<rscale>  2 0.17613705E+03</rscale>
<asrwt>0</asrwt>
<pdfrwt beam="1">  1       21 0.13287722E+00 0.17613705E+03</pdfrwt>
<pdfrwt beam="2">  1       21 0.55412668E-02 0.17613705E+03</pdfrwt>
<totfact> 0.93081881E+04</totfact>
</mgrwt>
</event>
<event>
 4    1  0.4349106E+000  0.2456256E+03  0.7546771E-02  0.1116101E+00
         21   -1    0    0  503  502  0.00000000000E+00  0.00000000000E+00  0.12199660193E+03  0.12199660193E+03  0.00000000000E+00 0. -1.
         21   -1    0    0  501  503 -0.00000000000E+00 -0.00000000000E+00 -0.89599126223E+03  0.89599126223E+03  0.00000000000E+00 0. -1.
          6    1    1    2  501    0 -0.17051977662E+03  0.36413183561E+02 -0.72770224368E+03  0.76803806521E+03  0.17300000000E+03 0. -1.
         -6    1    1    2    0  502  0.17051977662E+03 -0.36413183561E+02 -0.46292416616E+02  0.24994979894E+03  0.17300000000E+03 0. -1.
<mgrwt>
<rscale>  2 0.24562556E+03</rscale>
<asrwt>0</asrwt>
<pdfrwt beam="1">  1       21 0.18768708E-01 0.24562556E+03</pdfrwt>
<pdfrwt beam="2">  1       21 0.13784481E+00 0.24562556E+03</pdfrwt>
<totfact> 0.93329373E+03</totfact>
</mgrwt>
</event>
<event>
 4    1  0.4349106E+000  0.1740518E+03  0.7546771E-02  0.1173687E+00
         21   -1    0    0  503  502  0.00000000000E+00  0.00000000000E+00  0.70994096743E+03  0.70994096743E+03  0.00000000000E+00 0. -1.
         21   -1    0    0  501  503 -0.00000000000E+00 -0.00000000000E+00 -0.56567050696E+02  0.56567050696E+02  0.00000000000E+00 0. -1.
          6    1    1    2  501    0 -0.44407925191E+01 -0.18582193400E+02  0.13673322817E+03  0.22133683434E+03  0.17300000000E+03 0. -1.
         -6    1    1    2    0  502  0.44407925191E+01  0.18582193400E+02  0.51664068857E+03  0.54517118379E+03  0.17300000000E+03 0. -1.
<mgrwt>
<rscale>  2 0.17405177E+03</rscale>
<asrwt>0</asrwt>
<pdfrwt beam="1">  1       21 0.10922168E+00 0.17405177E+03</pdfrwt>
<pdfrwt beam="2">  1       21 0.87026237E-02 0.17405177E+03</pdfrwt>
<totfact> 0.69444738E+04</totfact>
</mgrwt>
</event>
<event>
 4    1  0.4349106E+000  0.2011039E+03  0.7546771E-02  0.1148811E+00
         21   -1    0    0  503  502  0.00000000000E+00  0.00000000000E+00  0.10902718109E+04  0.10902718109E+04  0.00000000000E+00 0.  1.
         21   -1    0    0  501  503 -0.00000000000E+00 -0.00000000000E+00 -0.41679068307E+02  0.41679068307E+02  0.00000000000E+00 0.  1.
          6    1    1    2  501    0  0.84909312321E+02  0.57481909203E+02  0.33658006874E+03  0.39208277682E+03  0.17300000000E+03 0.  1.
         -6    1    1    2    0  502 -0.84909312321E+02 -0.57481909203E+02  0.71201267384E+03  0.73986810237E+03  0.17300000000E+03 0.  1.
<mgrwt>
<rscale>  2 0.20110386E+03</rscale>
<asrwt>0</asrwt>
<pdfrwt beam="1">  1       21 0.16773410E+00 0.20110386E+03</pdfrwt>
<pdfrwt beam="2">  1       21 0.64121652E-02 0.20110386E+03</pdfrwt>
<totfact> 0.38745941E+04</totfact>
</mgrwt>
</event>
<event>
 4    1  0.4349106E+000  0.2507640E+03  0.7546771E-02  0.1112823E+00
         21   -1    0    0  503  502  0.00000000000E+00  0.00000000000E+00  0.62298938200E+02  0.62298938200E+02  0.00000000000E+00 0. -1.
         21   -1    0    0  501  503 -0.00000000000E+00 -0.00000000000E+00 -0.10597935847E+04  0.10597935847E+04  0.00000000000E+00 0.  1.
          6    1    1    2  501    0 -0.15035264534E+03  0.10172337152E+03 -0.37636661162E+03  0.45225478285E+03  0.17300000000E+03 0. -1.
         -6    1    1    2    0  502  0.15035264534E+03 -0.10172337152E+03 -0.62112803493E+03  0.66983774009E+03  0.17300000000E+03 0.  1.
<mgrwt>
<rscale>  2 0.25076396E+03</rscale>
<asrwt>0</asrwt>
<pdfrwt beam="1">  1       21 0.95844518E-02 0.25076396E+03</pdfrwt>
<pdfrwt beam="2">  1       21 0.16304517E+00 0.25076396E+03</pdfrwt>
<totfact> 0.20169278E+04</totfact>
</mgrwt>
</event>
<event>
 4    1  0.4349106E+000  0.2279674E+03  0.7546771E-02  0.1128079E+00
         21   -1    0    0  503  502  0.00000000000E+00  0.00000000000E+00  0.23593634013E+03  0.23593634013E+03  0.00000000000E+00 0.  1.
         21   -1    0    0  501  503 -0.00000000000E+00 -0.00000000000E+00 -0.53268673941E+03  0.53268673941E+03  0.00000000000E+00 0.  1.
          6    1    1    2  501    0  0.76915869746E+02  0.12698067275E+03 -0.44269282191E+03  0.49794184082E+03  0.17300000000E+03 0.  1.
         -6    1    1    2    0  502 -0.76915869746E+02 -0.12698067275E+03  0.14594242262E+03  0.27068123871E+03  0.17300000000E+03 0.  1.
<mgrwt>
<rscale>  2 0.22796741E+03</rscale>
<asrwt>0</asrwt>
<pdfrwt beam="1">  1       21 0.36297899E-01 0.22796741E+03</pdfrwt>
<pdfrwt beam="2">  1       21 0.81951806E-01 0.22796741E+03</pdfrwt>
<totfact> 0.93092379E+03</totfact>
</mgrwt>
</event>
<event>
 4    1  0.4349106E+000  0.3005062E+03  0.7546771E-02  0.1084988E+00
         21   -1    0    0  503  502  0.00000000000E+00  0.00000000000E+00  0.90580316095E+03  0.90580316095E+03  0.00000000000E+00 0.  1.
         21   -1    0    0  501  503 -0.00000000000E+00 -0.00000000000E+00 -0.11057433675E+03  0.11057433675E+03  0.00000000000E+00 0. -1.
          6    1    1    2  501    0  0.79520788845E+02 -0.23248957815E+03  0.23820976204E+03  0.38346818713E+03  0.17300000000E+03 0. -1.
         -6    1    1    2    0  502 -0.79520788845E+02  0.23248957815E+03  0.55701906216E+03  0.63290931058E+03  0.17300000000E+03 0. -1.
<mgrwt>
<rscale>  2 0.30050617E+03</rscale>
<asrwt>0</asrwt>
<pdfrwt beam="1">  1       21 0.13935433E+00 0.30050617E+03</pdfrwt>
<pdfrwt beam="2">  1       21 0.17011437E-01 0.30050617E+03</pdfrwt>
<totfact> 0.10576037E+04</totfact>
</mgrwt>
</event>
<event>
 4    1  0.4349106E+000  0.1934052E+03  0.7546771E-02  0.1155425E+00
         21   -1    0    0  503  502  0.00000000000E+00  0.00000000000E+00  0.22147306592E+03  0.22147306592E+03  0.00000000000E+00 0. -1.
         21   -1    0    0  501  503 -0.00000000000E+00 -0.00000000000E+00 -0.18157085021E+03  0.18157085021E+03  0.00000000000E+00 0. -1.
          6    1    1    2  501    0  0.75895444290E+02  0.41430123128E+02 -0.33296136141E+02  0.19625036624E+03  0.17300000000E+03 0. -1.
         -6    1    1    2    0  502 -0.75895444290E+02 -0.41430123128E+02  0.73198351852E+02  0.20679354990E+03  0.17300000000E+03 0. -1.
<mgrwt>
<rscale>  2 0.19340521E+03</rscale>
<asrwt>0</asrwt>
<pdfrwt beam="1">  1       21 0.34072779E-01 0.19340521E+03</pdfrwt>
<pdfrwt beam="2">  1       21 0.27933977E-01 0.19340521E+03</pdfrwt>
<totfact> 0.10155601E+05</totfact>
</mgrwt>
</event>
<event>
 4    1  0.4349106E+000  0.1773210E+03  0.7546771E-02  0.1170421E+00
         21   -1    0    0  501  502  0.00000000000E+00  0.00000000000E+00  0.63181862392E+02  0.63181862392E+02  0.00000000000E+00 0.  1.
         21   -1    0    0  502  503 -0.00000000000E+00 -0.00000000000E+00 -0.51629442850E+03  0.51629442850E+03  0.00000000000E+00 0.  1.
          6    1    1    2  501    0  0.34583892237E+02  0.17824058356E+02 -0.17150363112E+03  0.24669057166E+03  0.17300000000E+03 0.  1.
         -6    1    1    2    0  503 -0.34583892237E+02 -0.17824058356E+02 -0.28160893499E+03  0.33278571923E+03  0.17300000000E+03 0.  1.
<mgrwt>
<rscale>  2 0.17732102E+03</rscale>
<asrwt>0</asrwt>
<pdfrwt beam="1">  1       21 0.97202864E-02 0.17732102E+03</pdfrwt>
<pdfrwt beam="2">  1       21 0.79429913E-01 0.17732102E+03</pdfrwt>
<totfact> 0.11992689E+05</totfact>
</mgrwt>
</event>
<event>
 4    1  0.4349106E+000  0.2758257E+03  0.7546771E-02  0.1097991E+00
         21   -1    0    0  503  502  0.00000000000E+00  0.00000000000E+00  0.10746416838E+03  0.10746416838E+03  0.00000000000E+00 0. -1.
         21   -1    0    0  501  503 -0.00000000000E+00 -0.00000000000E+00 -0.14286594176E+04  0.14286594176E+04  0.00000000000E+00 0.  1.
          6    1    1    2  501    0 -0.20662070443E+03  0.58810589835E+02 -0.11507799343E+03  0.29886911106E+03  0.17300000000E+03 0. -1.
         -6    1    1    2    0  502  0.20662070443E+03 -0.58810589835E+02 -0.12061172558E+04  0.12372544749E+04  0.17300000000E+03 0.  1.
<mgrwt>
<rscale>  2 0.27582567E+03</rscale>
<asrwt>0</asrwt>
<pdfrwt beam="1">  1       21 0.16532949E-01 0.27582567E+03</pdfrwt>
<pdfrwt beam="2">  1       21 0.21979376E+00 0.27582567E+03</pdfrwt>
<totfact> 0.30826821E+03</totfact>
</mgrwt>
</event>
<event>
 4    1  0.4349106E+000  0.2743135E+03  0.7546771E-02  0.1098836E+00
         21   -1    0    0  501  502  0.00000000000E+00  0.00000000000E+00  0.13708121933E+03  0.13708121933E+03  0.00000000000E+00 0. -1.
         21   -1    0    0  502  503 -0.00000000000E+00 -0.00000000000E+00 -0.79450989189E+03  0.79450989189E+03  0.00000000000E+00 0.  1.
          6    1    1    2  501    0  0.20605600756E+03  0.53477416991E+02 -0.69748417396E+02  0.28304196528E+03  0.17300000000E+03 0. -1.
         -6    1    1    2    0  503 -0.20605600756E+03 -0.53477416991E+02 -0.58768025517E+03  0.64854914594E+03  0.17300000000E+03 0.  1.
<mgrwt>
<rscale>  2 0.27431353E+03</rscale>
<asrwt>0</asrwt>
<pdfrwt beam="1">  1       21 0.21089418E-01 0.27431353E+03</pdfrwt>
<pdfrwt beam="2">  1       21 0.12223229E+00 0.27431353E+03</pdfrwt>
<totfact> 0.10021277E+04</totfact>
</mgrwt>
</event>
<event>
 4    1  0.4349106E+000  0.2116623E+03  0.7546771E-02  0.1140256E+00
         21   -1    0    0  503  502  0.00000000000E+00  0.00000000000E+00  0.20550294057E+03  0.20550294057E+03  0.00000000000E+00 0. -1.
         21   -1    0    0  501  503 -0.00000000000E+00 -0.00000000000E+00 -0.23564091962E+03  0.23564091962E+03  0.00000000000E+00 0. -1.
          6    1    1    2  501    0 -0.65407334767E+02 -0.10292621436E+03 -0.75409443944E+02  0.22469425734E+03  0.17300000000E+03 0. -1.
         -6    1    1    2    0  502  0.65407334767E+02  0.10292621436E+03  0.45271464892E+02  0.21644960286E+03  0.17300000000E+03 0. -1.
<mgrwt>
<rscale>  2 0.21166229E+03</rscale>
<asrwt>0</asrwt>
<pdfrwt beam="1">  1       21 0.31615837E-01 0.21166229E+03</pdfrwt>
<pdfrwt beam="2">  1       21 0.36252449E-01 0.21166229E+03</pdfrwt>
<totfact> 0.69983071E+04</totfact>
</mgrwt>
</event>
<event>
 4    1  0.4349106E+000  0.1736212E+03  0.7546771E-02  0.1174123E+00
         21   -1    0    0  501  502  0.00000000000E+00  0.00000000000E+00  0.10048793251E+03  0.10048793251E+03  0.00000000000E+00 0.  1.
         21   -1    0    0  502  503 -0.00000000000E+00 -0.00000000000E+00 -0.34564558277E+03  0.34564558277E+03  0.00000000000E+00 0.  1.
          6    1    1    2  501    0 -0.87169132524E+01  0.11803634775E+02 -0.41498277601E+02  0.17851167305E+03  0.17300000000E+03 0. -1.
         -6    1    1    2    0  503  0.87169132524E+01 -0.11803634775E+02 -0.20365937265E+03  0.26762184223E+03  0.17300000000E+03 0. -1.
<mgrwt>
<rscale>  2 0.17362117E+03</rscale>
<asrwt>0</asrwt>
<pdfrwt beam="1">  1       21 0.15459682E-01 0.17362117E+03</pdfrwt>
<pdfrwt beam="2">  1       21 0.53176244E-01 0.17362117E+03</pdfrwt>
<totfact> 0.12519206E+05</totfact>
</mgrwt>
</event>
<event>
 4    1  0.4349106E+000  0.2266988E+03  0.7546771E-02  0.1128985E+00
         21   -1    0    0  501  502  0.00000000000E+00  0.00000000000E+00  0.11060134228E+04  0.11060134228E+04  0.00000000000E+00 0. -1.
         21   -1    0    0  502  503 -0.00000000000E+00 -0.00000000000E+00 -0.51030491721E+02  0.51030491721E+02  0.00000000000E+00 0. -1.
          6    1    1    2  501    0  0.10149518608E+03  0.10565076026E+03  0.70050764554E+03  0.73627665820E+03  0.17300000000E+03 0. -1.
         -6    1    1    2    0  503 -0.10149518608E+03 -0.10565076026E+03  0.35447528554E+03  0.42076725633E+03  0.17300000000E+03 0. -1.
<mgrwt>
<rscale>  2 0.22669882E+03</rscale>
<asrwt>0</asrwt>
<pdfrwt beam="1">  1       21 0.17015589E+00 0.22669882E+03</pdfrwt>
<pdfrwt beam="2">  1       21 0.78508457E-02 0.22669882E+03</pdfrwt>
<totfact> 0.25817802E+04</totfact>
</mgrwt>
</event>
<event>
 4    1  0.4349106E+000  0.1902046E+03  0.7546771E-02  0.1158277E+00
         21   -1    0    0  501  502  0.00000000000E+00  0.00000000000E+00  0.30286732627E+02  0.30286732627E+02  0.00000000000E+00 0.  1.
         21   -1    0    0  502  503 -0.00000000000E+00 -0.00000000000E+00 -0.12931094159E+04  0.12931094159E+04  0.00000000000E+00 0.  1.
          6    1    1    2  501    0  0.30745594297E+01  0.78989415301E+02 -0.44869340804E+03  0.48734336465E+03  0.17300000000E+03 0.  1.
         -6    1    1    2    0  503 -0.30745594297E+01 -0.78989415301E+02 -0.81412927525E+03  0.83605278390E+03  0.17300000000E+03 0.  1.
<mgrwt>
<rscale>  2 0.19020458E+03</rscale>
<asrwt>0</asrwt>
<pdfrwt beam="1">  1       21 0.46594977E-02 0.19020458E+03</pdfrwt>
<pdfrwt beam="2">  1       21 0.19893989E+00 0.19020458E+03</pdfrwt>
<totfact> 0.41407935E+04</totfact>
</mgrwt>
</event>
<event>
 4    1  0.4349106E+000  0.1869375E+03  0.7546771E-02  0.1161253E+00
         21   -1    0    0  501  502  0.00000000000E+00  0.00000000000E+00  0.10456773144E+04  0.10456773144E+04  0.00000000000E+00 0.  1.
         21   -1    0    0  502  503 -0.00000000000E+00 -0.00000000000E+00 -0.33906690864E+02  0.33906690864E+02  0.00000000000E+00 0.  1.
          6    1    1    2  501    0  0.63976227784E+02 -0.30392108173E+02  0.57061344970E+03  0.60045428381E+03  0.17300000000E+03 0.  1.
         -6    1    1    2    0  503 -0.63976227784E+02  0.30392108173E+02  0.44115717385E+03  0.47912972147E+03  0.17300000000E+03 0.  1.
<mgrwt>
<rscale>  2 0.18693752E+03</rscale>
<asrwt>0</asrwt>
<pdfrwt beam="1">  1       21 0.16087341E+00 0.18693752E+03</pdfrwt>
<pdfrwt beam="2">  1       21 0.52164148E-02 0.18693752E+03</pdfrwt>
<totfact> 0.62281330E+04</totfact>
</mgrwt>
</event>
<event>
 4    1  0.4349106E+000  0.1974039E+03  0.7546771E-02  0.1151948E+00
         21   -1    0    0  501  502  0.00000000000E+00  0.00000000000E+00  0.42436571258E+03  0.42436571258E+03  0.00000000000E+00 0.  1.
         21   -1    0    0  502  503 -0.00000000000E+00 -0.00000000000E+00 -0.12277353702E+03  0.12277353702E+03  0.00000000000E+00 0.  1.
          6    1    1    2  501    0 -0.66762432388E+01 -0.94840632982E+02  0.13448805211E+02  0.19786153808E+03  0.17300000000E+03 0.  1.
         -6    1    1    2    0  503  0.66762432388E+01  0.94840632982E+02  0.28814337035E+03  0.34927771152E+03  0.17300000000E+03 0.  1.
<mgrwt>
<rscale>  2 0.19740395E+03</rscale>
<asrwt>0</asrwt>
<pdfrwt beam="1">  1       21 0.65287032E-01 0.19740395E+03</pdfrwt>
<pdfrwt beam="2">  1       21 0.18888237E-01 0.19740395E+03</pdfrwt>
<totfact> 0.55305704E+04</totfact>
</mgrwt>
</event>
<event>
 4    1  0.4349106E+000  0.8203975E+03  0.7546771E-02  0.9530953E-01
         21   -1    0    0  501  502  0.00000000000E+00  0.00000000000E+00  0.15397342636E+04  0.15397342636E+04  0.00000000000E+00 0. -1.
         21   -1    0    0  502  503 -0.00000000000E+00 -0.00000000000E+00 -0.50873974340E+03  0.50873974340E+03  0.00000000000E+00 0.  1.
          6    1    1    2  501    0 -0.12635438990E+03  0.79193282134E+03  0.89979014632E+03  0.12176511540E+04  0.17300000000E+03 0. -1.
         -6    1    1    2    0  503  0.12635438990E+03 -0.79193282134E+03  0.13120437386E+03  0.83082285301E+03  0.17300000000E+03 0.  1.
<mgrwt>
<rscale>  2 0.82039748E+03</rscale>
<asrwt>0</asrwt>
<pdfrwt beam="1">  1       21 0.23688219E+00 0.82039748E+03</pdfrwt>
<pdfrwt beam="2">  1       21 0.78267653E-01 0.82039748E+03</pdfrwt>
<totfact> 0.77105952E+01</totfact>
</mgrwt>
</event>
<event>
 4    1  0.4349106E+000  0.2029207E+03  0.7546771E-02  0.1147298E+00
         21   -1    0    0  503  502  0.00000000000E+00  0.00000000000E+00  0.66557508630E+03  0.66557508630E+03  0.00000000000E+00 0. -1.
         21   -1    0    0  501  503 -0.00000000000E+00 -0.00000000000E+00 -0.91275086330E+02  0.91275086330E+02  0.00000000000E+00 0. -1.
          6    1    1    2  501    0 -0.89261682023E+02  0.57272673664E+02  0.72346773382E+02  0.21543180509E+03  0.17300000000E+03 0. -1.
         -6    1    1    2    0  502  0.89261682023E+02 -0.57272673664E+02  0.50195322659E+03  0.54141836754E+03  0.17300000000E+03 0. -1.
<mgrwt>
<rscale>  2 0.20292069E+03</rscale>
<asrwt>0</asrwt>
<pdfrwt beam="1">  1       21 0.10239616E+00 0.20292069E+03</pdfrwt>
<pdfrwt beam="2">  1       21 0.14042321E-01 0.20292069E+03</pdfrwt>
<totfact> 0.34115242E+04</totfact>
</mgrwt>
</event>
<event>
 4    1  0.4349106E+000  0.1738224E+03  0.7546771E-02  0.1173919E+00
         21   -1    0    0  501  502  0.00000000000E+00  0.00000000000E+00  0.15286632471E+03  0.15286632471E+03  0.00000000000E+00 0.  1.
         21   -1    0    0  502  503 -0.00000000000E+00 -0.00000000000E+00 -0.20002925752E+03  0.20002925752E+03  0.00000000000E+00 0.  1.
          6    1    1    2  501    0 -0.93420395651E+01 -0.14069294920E+02 -0.43427136702E+01  0.17387661696E+03  0.17300000000E+03 0. -1.
         -6    1    1    2    0  503  0.93420395651E+01  0.14069294920E+02 -0.42820219139E+02  0.17901896528E+03  0.17300000000E+03 0. -1.
<mgrwt>
<rscale>  2 0.17382238E+03</rscale>
<asrwt>0</asrwt>
<pdfrwt beam="1">  1       21 0.23517896E-01 0.17382238E+03</pdfrwt>
<pdfrwt beam="2">  1       21 0.30773732E-01 0.17382238E+03</pdfrwt>
<totfact> 0.17351690E+05</totfact>
</mgrwt>
</event>
<event>
 4    1  0.4349106E+000  0.2062859E+03  0.7546771E-02  0.1144541E+00
         21   -1    0    0  501  502  0.00000000000E+00  0.00000000000E+00  0.15432573532E+03  0.15432573532E+03  0.00000000000E+00 0. -1.
         21   -1    0    0  502  503 -0.00000000000E+00 -0.00000000000E+00 -0.27596427021E+03  0.27596427021E+03  0.00000000000E+00 0. -1.
          6    1    1    2  501    0 -0.46442495147E+02 -0.10231311673E+03 -0.66943565599E+02  0.21687627852E+03  0.17300000000E+03 0. -1.
         -6    1    1    2    0  503  0.46442495147E+02  0.10231311673E+03 -0.54694969288E+02  0.21341372701E+03  0.17300000000E+03 0. -1.
<mgrwt>
<rscale>  2 0.20628592E+03</rscale>
<asrwt>0</asrwt>
<pdfrwt beam="1">  1       21 0.23742421E-01 0.20628592E+03</pdfrwt>
<pdfrwt beam="2">  1       21 0.42456042E-01 0.20628592E+03</pdfrwt>
<totfact> 0.88690583E+04</totfact>
</mgrwt>
</event>
<event>
 4    1  0.4349106E+000  0.2091557E+03  0.7546771E-02  0.1142236E+00
         21   -1    0    0  501  502  0.00000000000E+00  0.00000000000E+00  0.65956534740E+03  0.65956534740E+03  0.00000000000E+00 0. -1.
         21   -1    0    0  502  503 -0.00000000000E+00 -0.00000000000E+00 -0.67349226164E+02  0.67349226164E+02  0.00000000000E+00 0. -1.
          6    1    1    2  501    0 -0.33209181885E+02  0.11275745999E+03  0.34091538750E+03  0.39996174314E+03  0.17300000000E+03 0. -1.
         -6    1    1    2    0  503  0.33209181885E+02 -0.11275745999E+03  0.25130073374E+03  0.32695283042E+03  0.17300000000E+03 0. -1.
<mgrwt>
<rscale>  2 0.20915567E+03</rscale>
<asrwt>0</asrwt>
<pdfrwt beam="1">  1       21 0.10147159E+00 0.20915567E+03</pdfrwt>
<pdfrwt beam="2">  1       21 0.10361420E-01 0.20915567E+03</pdfrwt>
<totfact> 0.59937506E+04</totfact>
</mgrwt>
</event>
<event>
 4    1  0.4349106E+000  0.3454808E+03  0.7546771E-02  0.1064485E+00
         21   -1    0    0  501  502  0.00000000000E+00  0.00000000000E+00  0.38011898912E+03  0.38011898912E+03  0.00000000000E+00 0.  1.
         21   -1    0    0  502  503 -0.00000000000E+00 -0.00000000000E+00 -0.39358345037E+03  0.39358345037E+03  0.00000000000E+00 0.  1.
          6    1    1    2  501    0 -0.29806506601E+03 -0.24190585936E+02  0.16722391266E+03  0.38382392446E+03  0.17300000000E+03 0.  1.
         -6    1    1    2    0  503  0.29806506601E+03  0.24190585936E+02 -0.18068837390E+03  0.38987851503E+03  0.17300000000E+03 0.  1.
<mgrwt>
<rscale>  2 0.34548078E+03</rscale>
<asrwt>0</asrwt>
<pdfrwt beam="1">  1       21 0.58479844E-01 0.34548078E+03</pdfrwt>
<pdfrwt beam="2">  1       21 0.60551300E-01 0.34548078E+03</pdfrwt>
<totfact> 0.63857369E+03</totfact>
</mgrwt>
</event>
<event>
 4    1  0.4349106E+000  0.2151504E+03  0.7546771E-02  0.1137551E+00
         21   -1    0    0  503  502  0.00000000000E+00  0.00000000000E+00  0.45543439687E+03  0.45543439687E+03  0.00000000000E+00 0. -1.
         21   -1    0    0  501  503 -0.00000000000E+00 -0.00000000000E+00 -0.33577780635E+03  0.33577780635E+03  0.00000000000E+00 0. -1.
          6    1    1    2  501    0  0.80227579506E+02  0.99620432023E+02 -0.27052154276E+03  0.34564664050E+03  0.17300000000E+03 0. -1.
         -6    1    1    2    0  502 -0.80227579506E+02 -0.99620432023E+02  0.39017813328E+03  0.44556556272E+03  0.17300000000E+03 0. -1.
<mgrwt>
<rscale>  2 0.21515040E+03</rscale>
<asrwt>0</asrwt>
<pdfrwt beam="1">  1       21 0.70066831E-01 0.21515040E+03</pdfrwt>
<pdfrwt beam="2">  1       21 0.51658124E-01 0.21515040E+03</pdfrwt>
<totfact> 0.64741774E+03</totfact>
</mgrwt>
</event>
<event>
 4    1  0.4349106E+000  0.1771334E+03  0.7546771E-02  0.1170607E+00
         21   -1    0    0  501  502  0.00000000000E+00  0.00000000000E+00  0.22191843112E+03  0.22191843112E+03  0.00000000000E+00 0.  1.
         21   -1    0    0  502  503 -0.00000000000E+00 -0.00000000000E+00 -0.25788887466E+03  0.25788887466E+03  0.00000000000E+00 0.  1.
          6    1    1    2  501    0 -0.37299984263E+02 -0.74809374904E+01  0.14326045855E+03  0.22781530290E+03  0.17300000000E+03 0.  1.
         -6    1    1    2    0  503  0.37299984263E+02  0.74809374904E+01 -0.17923090209E+03  0.25199200288E+03  0.17300000000E+03 0.  1.
<mgrwt>
<rscale>  2 0.17713343E+03</rscale>
<asrwt>0</asrwt>
<pdfrwt beam="1">  1       21 0.34141297E-01 0.17713343E+03</pdfrwt>
<pdfrwt beam="2">  1       21 0.39675211E-01 0.17713343E+03</pdfrwt>
<totfact> 0.50990417E+04</totfact>
</mgrwt>
</event>
<event>
 4    1  0.4349106E+000  0.2415763E+03  0.7546771E-02  0.1118747E+00
         21   -1    0    0  503  502  0.00000000000E+00  0.00000000000E+00  0.23932600988E+03  0.23932600988E+03  0.00000000000E+00 0. -1.
         21   -1    0    0  501  503 -0.00000000000E+00 -0.00000000000E+00 -0.42923819903E+03  0.42923819903E+03  0.00000000000E+00 0.  1.
          6    1    1    2  501    0  0.16164556382E+03 -0.47966952126E+02 -0.31464472717E+03  0.39668680484E+03  0.17300000000E+03 0.  1.
         -6    1    1    2    0  502 -0.16164556382E+03  0.47966952126E+02  0.12473253802E+03  0.27187740406E+03  0.17300000000E+03 0. -1.
<mgrwt>
<rscale>  2 0.24157632E+03</rscale>
<asrwt>0</asrwt>
<pdfrwt beam="1">  1       21 0.36819387E-01 0.24157632E+03</pdfrwt>
<pdfrwt beam="2">  1       21 0.66036645E-01 0.24157632E+03</pdfrwt>
<totfact> 0.14550814E+04</totfact>
</mgrwt>
</event>
<event>
 4    1  0.4349106E+000  0.1793770E+03  0.7546771E-02  0.1168407E+00
         21   -1    0    0  501  502  0.00000000000E+00  0.00000000000E+00  0.25588643693E+02  0.25588643693E+02  0.00000000000E+00 0.  1.
         21   -1    0    0  502  503 -0.00000000000E+00 -0.00000000000E+00 -0.13822825293E+04  0.13822825293E+04  0.00000000000E+00 0.  1.
          6    1    1    2  501    0  0.11641275546E+02  0.45952183850E+02 -0.46679355722E+03  0.50007234233E+03  0.17300000000E+03 0.  1.
         -6    1    1    2    0  503 -0.11641275546E+02 -0.45952183850E+02 -0.88990032840E+03  0.90779883068E+03  0.17300000000E+03 0.  1.
<mgrwt>
<rscale>  2 0.17937704E+03</rscale>
<asrwt>0</asrwt>
<pdfrwt beam="1">  1       21 0.39367158E-02 0.17937704E+03</pdfrwt>
<pdfrwt beam="2">  1       21 0.21265878E+00 0.17937704E+03</pdfrwt>
<totfact> 0.45369739E+04</totfact>
</mgrwt>
</event>
<event>
 4    1  0.4349106E+000  0.2396585E+03  0.7546771E-02  0.1120021E+00
         21   -1    0    0  501  502  0.00000000000E+00  0.00000000000E+00  0.72748212435E+03  0.72748212435E+03  0.00000000000E+00 0.  1.
         21   -1    0    0  502  503 -0.00000000000E+00 -0.00000000000E+00 -0.80943348883E+02  0.80943348883E+02  0.00000000000E+00 0. -1.
          6    1    1    2  501    0  0.84258005859E+02 -0.14285582573E+03  0.38666929431E+03  0.45491685137E+03  0.17300000000E+03 0. -1.
         -6    1    1    2    0  503 -0.84258005859E+02  0.14285582573E+03  0.25986948115E+03  0.35350862186E+03  0.17300000000E+03 0. -1.
<mgrwt>
<rscale>  2 0.23965850E+03</rscale>
<asrwt>0</asrwt>
<pdfrwt beam="1">  1       21 0.11192032E+00 0.23965850E+03</pdfrwt>
<pdfrwt beam="2">  1       21 0.12452823E-01 0.23965850E+03</pdfrwt>
<totfact> 0.33544610E+04</totfact>
</mgrwt>
</event>
<event>
 4    1  0.4349106E+000  0.1918661E+03  0.7546771E-02  0.1156789E+00
         21   -1    0    0  501  502  0.00000000000E+00  0.00000000000E+00  0.82908996519E+03  0.82908996519E+03  0.00000000000E+00 0. -1.
         21   -1    0    0  502  503 -0.00000000000E+00 -0.00000000000E+00 -0.12158778049E+03  0.12158778049E+03  0.00000000000E+00 0. -1.
          6    1    1    2  501    0  0.78235249424E+02 -0.27619622584E+02  0.73248068316E+03  0.75719254421E+03  0.17300000000E+03 0.  1.
         -6    1    1    2    0  503 -0.78235249424E+02  0.27619622584E+02 -0.24978498463E+02  0.19348520147E+03  0.17300000000E+03 0.  1.
<mgrwt>
<rscale>  2 0.19186609E+03</rscale>
<asrwt>0</asrwt>
<pdfrwt beam="1">  1       21 0.12755230E+00 0.19186609E+03</pdfrwt>
<pdfrwt beam="2">  1       21 0.18705813E-01 0.19186609E+03</pdfrwt>
<totfact> 0.11862575E+04</totfact>
</mgrwt>
</event>
<event>
 4    1  0.4349106E+000  0.1892630E+03  0.7546771E-02  0.1159128E+00
         21   -1    0    0  503  502  0.00000000000E+00  0.00000000000E+00  0.46301425289E+03  0.46301425289E+03  0.00000000000E+00 0. -1.
         21   -1    0    0  501  503 -0.00000000000E+00 -0.00000000000E+00 -0.90414163217E+02  0.90414163217E+02  0.00000000000E+00 0. -1.
          6    1    1    2  501    0 -0.53312634437E+02  0.55220138096E+02  0.81170202508E+02  0.20593470426E+03  0.17300000000E+03 0. -1.
         -6    1    1    2    0  502  0.53312634437E+02 -0.55220138096E+02  0.29142988716E+03  0.34749371185E+03  0.17300000000E+03 0. -1.
<mgrwt>
<rscale>  2 0.18926305E+03</rscale>
<asrwt>0</asrwt>
<pdfrwt beam="1">  1       21 0.71232960E-01 0.18926305E+03</pdfrwt>
<pdfrwt beam="2">  1       21 0.13909872E-01 0.18926305E+03</pdfrwt>
<totfact> 0.80318549E+04</totfact>
</mgrwt>
</event>
<event>
 4    1  0.4349106E+000  0.1855967E+03  0.7546771E-02  0.1162494E+00
         21   -1    0    0  503  502  0.00000000000E+00  0.00000000000E+00  0.30338811089E+03  0.30338811089E+03  0.00000000000E+00 0. -1.
         21   -1    0    0  501  503 -0.00000000000E+00 -0.00000000000E+00 -0.18866640914E+03  0.18866640914E+03  0.00000000000E+00 0. -1.
          6    1    1    2  501    0 -0.64105823003E+02  0.20188213527E+02 -0.97891305918E+02  0.20983047510E+03  0.17300000000E+03 0.  1.
         -6    1    1    2    0  502  0.64105823003E+02 -0.20188213527E+02  0.21261300767E+03  0.28222404493E+03  0.17300000000E+03 0.  1.
<mgrwt>
<rscale>  2 0.18559666E+03</rscale>
<asrwt>0</asrwt>
<pdfrwt beam="1">  1       21 0.46675094E-01 0.18559666E+03</pdfrwt>
<pdfrwt beam="2">  1       21 0.29025601E-01 0.18559666E+03</pdfrwt>
<totfact> 0.50107684E+04</totfact>
</mgrwt>
</event>
<event>
 4    1  0.4349106E+000  0.2383491E+03  0.7546771E-02  0.1120898E+00
         21   -1    0    0  501  502  0.00000000000E+00  0.00000000000E+00  0.10581696075E+03  0.10581696075E+03  0.00000000000E+00 0. -1.
         21   -1    0    0  502  503 -0.00000000000E+00 -0.00000000000E+00 -0.86202580265E+03  0.86202580265E+03  0.00000000000E+00 0. -1.
          6    1    1    2  501    0 -0.14786569713E+03 -0.70830945816E+02 -0.80897912736E+02  0.25170371383E+03  0.17300000000E+03 0. -1.
         -6    1    1    2    0  503  0.14786569713E+03  0.70830945816E+02 -0.67531092917E+03  0.71613904957E+03  0.17300000000E+03 0. -1.
<mgrwt>
<rscale>  2 0.23834909E+03</rscale>
<asrwt>0</asrwt>
<pdfrwt beam="1">  1       21 0.16279532E-01 0.23834909E+03</pdfrwt>
<pdfrwt beam="2">  1       21 0.13261935E+00 0.23834909E+03</pdfrwt>
<totfact> 0.13476664E+04</totfact>
</mgrwt>
</event>
<event>
 4    1  0.4349106E+000  0.1929997E+03  0.7546771E-02  0.1155783E+00
         21   -1    0    0  501  502  0.00000000000E+00  0.00000000000E+00  0.10289460445E+03  0.10289460445E+03  0.00000000000E+00 0. -1.
         21   -1    0    0  502  503 -0.00000000000E+00 -0.00000000000E+00 -0.44141875351E+03  0.44141875351E+03  0.00000000000E+00 0. -1.
          6    1    1    2  501    0  0.83298594119E+02 -0.19525311627E+02 -0.28469436750E+03  0.34394734548E+03  0.17300000000E+03 0. -1.
         -6    1    1    2    0  503 -0.83298594119E+02  0.19525311627E+02 -0.53829781554E+02  0.20036601248E+03  0.17300000000E+03 0. -1.
<mgrwt>
<rscale>  2 0.19299972E+03</rscale>
<asrwt>0</asrwt>
<pdfrwt beam="1">  1       21 0.15829939E-01 0.19299972E+03</pdfrwt>
<pdfrwt beam="2">  1       21 0.67910578E-01 0.19299972E+03</pdfrwt>
<totfact> 0.70417092E+04</totfact>
</mgrwt>
</event>
<event>
 4    1  0.4349106E+000  0.2601298E+03  0.7546771E-02  0.1107065E+00
         21   -1    0    0  503  502  0.00000000000E+00  0.00000000000E+00  0.14439033498E+03  0.14439033498E+03  0.00000000000E+00 0. -1.
         21   -1    0    0  501  503 -0.00000000000E+00 -0.00000000000E+00 -0.13783948107E+04  0.13783948107E+04  0.00000000000E+00 0.  1.
          6    1    1    2  501    0 -0.18477094190E+03  0.59985041390E+02 -0.12355643399E+04  0.12626506818E+04  0.17300000000E+03 0.  1.
         -6    1    1    2    0  502  0.18477094190E+03 -0.59985041390E+02  0.15598641191E+01  0.26013446396E+03  0.17300000000E+03 0. -1.
<mgrwt>
<rscale>  2 0.26012979E+03</rscale>
<asrwt>0</asrwt>
<pdfrwt beam="1">  1       21 0.22213897E-01 0.26012979E+03</pdfrwt>
<pdfrwt beam="2">  1       21 0.21206074E+00 0.26012979E+03</pdfrwt>
<totfact> 0.20059956E+03</totfact>
</mgrwt>
</event>
<event>
 4    1  0.4349106E+000  0.2019049E+03  0.7546771E-02  0.1148142E+00
         21   -1    0    0  501  502  0.00000000000E+00  0.00000000000E+00  0.87804760013E+03  0.87804760013E+03  0.00000000000E+00 0.  1.
         21   -1    0    0  502  503 -0.00000000000E+00 -0.00000000000E+00 -0.88283543623E+02  0.88283543623E+02  0.00000000000E+00 0.  1.
          6    1    1    2  501    0 -0.88776019425E+02 -0.54363565512E+02  0.72756842898E+03  0.75506383686E+03  0.17300000000E+03 0.  1.
         -6    1    1    2    0  503  0.88776019425E+02  0.54363565512E+02  0.62195627529E+02  0.21126730690E+03  0.17300000000E+03 0.  1.
<mgrwt>
<rscale>  2 0.20190488E+03</rscale>
<asrwt>0</asrwt>
<pdfrwt beam="1">  1       21 0.13508424E+00 0.20190488E+03</pdfrwt>
<pdfrwt beam="2">  1       21 0.13582084E-01 0.20190488E+03</pdfrwt>
<totfact> 0.18308981E+04</totfact>
</mgrwt>
</event>
<event>
 4    1  0.4349106E+000  0.1875526E+03  0.7546771E-02  0.1160687E+00
         21   -1    0    0  503  502  0.00000000000E+00  0.00000000000E+00  0.93259780640E+02  0.93259780640E+02  0.00000000000E+00 0. -1.
         21   -1    0    0  501  503 -0.00000000000E+00 -0.00000000000E+00 -0.41652425099E+03  0.41652425099E+03  0.00000000000E+00 0. -1.
          6    1    1    2  501    0  0.62583043132E+02  0.36474039836E+02 -0.23996813169E+03  0.30456640835E+03  0.17300000000E+03 0. -1.
         -6    1    1    2    0  502 -0.62583043132E+02 -0.36474039836E+02 -0.83296338658E+02  0.20521762328E+03  0.17300000000E+03 0. -1.
<mgrwt>
<rscale>  2 0.18755264E+03</rscale>
<asrwt>0</asrwt>
<pdfrwt beam="1">  1       21 0.14347659E-01 0.18755264E+03</pdfrwt>
<pdfrwt beam="2">  1       21 0.64080653E-01 0.18755264E+03</pdfrwt>
<totfact> 0.95800114E+04</totfact>
</mgrwt>
</event>
<event>
 4    1  0.4349106E+000  0.1749290E+03  0.7546771E-02  0.1172803E+00
         21   -1    0    0  501  502  0.00000000000E+00  0.00000000000E+00  0.82186797399E+03  0.82186797399E+03  0.00000000000E+00 0. -1.
         21   -1    0    0  502  503 -0.00000000000E+00 -0.00000000000E+00 -0.84260831944E+02  0.84260831944E+02  0.00000000000E+00 0. -1.
          6    1    1    2  501    0 -0.21212415393E+02 -0.14872699454E+02  0.70727892979E+03  0.72859017855E+03  0.17300000000E+03 0. -1.
         -6    1    1    2    0  503  0.21212415393E+02  0.14872699454E+02  0.30328212261E+02  0.17753862739E+03  0.17300000000E+03 0. -1.
<mgrwt>
<rscale>  2 0.17492902E+03</rscale>
<asrwt>0</asrwt>
<pdfrwt beam="1">  1       21 0.12644122E+00 0.17492902E+03</pdfrwt>
<pdfrwt beam="2">  1       21 0.12963205E-01 0.17492902E+03</pdfrwt>
<totfact> 0.23947065E+04</totfact>
</mgrwt>
</event>
<event>
 4    1  0.4349106E+000  0.2278711E+03  0.7546771E-02  0.1128147E+00
         21   -1    0    0  503  502  0.00000000000E+00  0.00000000000E+00  0.46424159468E+03  0.46424159468E+03  0.00000000000E+00 0.  1.
         21   -1    0    0  501  503 -0.00000000000E+00 -0.00000000000E+00 -0.17796158486E+03  0.17796158486E+03  0.00000000000E+00 0.  1.
          6    1    1    2  501    0 -0.14766963989E+03  0.13780725821E+02 -0.52572899444E+02  0.23385709462E+03  0.17300000000E+03 0.  1.
         -6    1    1    2    0  502  0.14766963989E+03 -0.13780725821E+02  0.33885290926E+03  0.40834608491E+03  0.17300000000E+03 0.  1.
<mgrwt>
<rscale>  2 0.22787108E+03</rscale>
<asrwt>0</asrwt>
<pdfrwt beam="1">  1       21 0.71421783E-01 0.22787108E+03</pdfrwt>
<pdfrwt beam="2">  1       21 0.27378706E-01 0.22787108E+03</pdfrwt>
<totfact> 0.22105748E+04</totfact>
</mgrwt>
</event>
<event>
 4    1  0.4349106E+000  0.2731737E+03  0.7546771E-02  0.1099477E+00
         21   -1    0    0  503  502  0.00000000000E+00  0.00000000000E+00  0.17634638989E+03  0.17634638989E+03  0.00000000000E+00 0.  1.
         21   -1    0    0  501  503 -0.00000000000E+00 -0.00000000000E+00 -0.71227918690E+03  0.71227918690E+03  0.00000000000E+00 0. -1.
          6    1    1    2  501    0 -0.21034574992E+03  0.21201954767E+02 -0.55103870079E+03  0.61503455770E+03  0.17300000000E+03 0. -1.
         -6    1    1    2    0  502  0.21034574992E+03 -0.21201954767E+02  0.15105903781E+02  0.27359101909E+03  0.17300000000E+03 0.  1.
<mgrwt>
<rscale>  2 0.27317368E+03</rscale>
<asrwt>0</asrwt>
<pdfrwt beam="1">  1       21 0.27130214E-01 0.27317368E+03</pdfrwt>
<pdfrwt beam="2">  1       21 0.10958141E+00 0.27317368E+03</pdfrwt>
<totfact> 0.81095810E+03</totfact>
</mgrwt>
</event>
<event>
 4    1  0.4349106E+000  0.1964645E+03  0.7546771E-02  0.1152757E+00
         21   -1    0    0  501  502  0.00000000000E+00  0.00000000000E+00  0.18520987660E+03  0.18520987660E+03  0.00000000000E+00 0. -1.
         21   -1    0    0  502  503 -0.00000000000E+00 -0.00000000000E+00 -0.21232561900E+03  0.21232561900E+03  0.00000000000E+00 0. -1.
          6    1    1    2  501    0 -0.46455396021E+02  0.80691984278E+02  0.13458742806E+02  0.19692495501E+03  0.17300000000E+03 0. -1.
         -6    1    1    2    0  503  0.46455396021E+02 -0.80691984278E+02 -0.40574485213E+02  0.20061054059E+03  0.17300000000E+03 0. -1.
<mgrwt>
<rscale>  2 0.19646450E+03</rscale>
<asrwt>0</asrwt>
<pdfrwt beam="1">  1       21 0.28493827E-01 0.19646450E+03</pdfrwt>
<pdfrwt beam="2">  1       21 0.32665480E-01 0.19646450E+03</pdfrwt>
<totfact> 0.10607945E+05</totfact>
</mgrwt>
</event>
<event>
 4    1  0.4349106E+000  0.1739470E+03  0.7546771E-02  0.1173793E+00
         21   -1    0    0  503  502  0.00000000000E+00  0.00000000000E+00  0.14754996237E+02  0.14754996237E+02  0.00000000000E+00 0.  1.
         21   -1    0    0  501  503 -0.00000000000E+00 -0.00000000000E+00 -0.24424674562E+04  0.24424674562E+04  0.00000000000E+00 0.  1.
          6    1    1    2  501    0  0.97173978041E+01 -0.15301600693E+02 -0.17059333770E+04  0.17147787768E+04  0.17300000000E+03 0. -1.
         -6    1    1    2    0  502 -0.97173978041E+01  0.15301600693E+02 -0.72177908298E+03  0.74244367559E+03  0.17300000000E+03 0. -1.
<mgrwt>
<rscale>  2 0.17394702E+03</rscale>
<asrwt>0</asrwt>
<pdfrwt beam="1">  1       21 0.22700032E-02 0.17394702E+03</pdfrwt>
<pdfrwt beam="2">  1       21 0.37576361E+00 0.17394702E+03</pdfrwt>
<totfact> 0.12580884E+04</totfact>
</mgrwt>
</event>
<event>
 4    1  0.4349106E+000  0.3268638E+03  0.7546771E-02  0.1072533E+00
         21   -1    0    0  501  502  0.00000000000E+00  0.00000000000E+00  0.66915187641E+03  0.66915187641E+03  0.00000000000E+00 0.  1.
         21   -1    0    0  502  503 -0.00000000000E+00 -0.00000000000E+00 -0.16023550242E+03  0.16023550242E+03  0.00000000000E+00 0. -1.
          6    1    1    2  501    0 -0.74078960367E+02  0.26725129708E+03  0.27920861306E+03  0.42988067852E+03  0.17300000000E+03 0. -1.
         -6    1    1    2    0  503  0.74078960367E+02 -0.26725129708E+03  0.22970776093E+03  0.39950670031E+03  0.17300000000E+03 0.  1.
<mgrwt>
<rscale>  2 0.32686381E+03</rscale>
<asrwt>0</asrwt>
<pdfrwt beam="1">  1       21 0.10294644E+00 0.32686381E+03</pdfrwt>
<pdfrwt beam="2">  1       21 0.24651616E-01 0.32686381E+03</pdfrwt>
<totfact> 0.11083378E+04</totfact>
</mgrwt>
</event>
<event>
 4    1  0.4349106E+000  0.1741710E+03  0.7546771E-02  0.1173567E+00
         21   -1    0    0  501  502  0.00000000000E+00  0.00000000000E+00  0.45813231158E+03  0.45813231158E+03  0.00000000000E+00 0.  1.
         21   -1    0    0  502  503 -0.00000000000E+00 -0.00000000000E+00 -0.52256310204E+03  0.52256310204E+03  0.00000000000E+00 0.  1.
          6    1    1    2  501    0 -0.46221019491E+01  0.19625480325E+02  0.42601363408E+03  0.46024247927E+03  0.17300000000E+03 0.  1.
         -6    1    1    2    0  503  0.46221019491E+01 -0.19625480325E+02 -0.49044442454E+03  0.52045293435E+03  0.17300000000E+03 0.  1.
<mgrwt>
<rscale>  2 0.17417096E+03</rscale>
<asrwt>0</asrwt>
<pdfrwt beam="1">  1       21 0.70481894E-01 0.17417096E+03</pdfrwt>
<pdfrwt beam="2">  1       21 0.80394323E-01 0.17417096E+03</pdfrwt>
<totfact> 0.25243051E+03</totfact>
</mgrwt>
</event>
<event>
 4    1  0.4349106E+000  0.2110971E+03  0.7546771E-02  0.1140700E+00
         21   -1    0    0  501  502  0.00000000000E+00  0.00000000000E+00  0.12122223540E+03  0.12122223540E+03  0.00000000000E+00 0. -1.
         21   -1    0    0  502  503 -0.00000000000E+00 -0.00000000000E+00 -0.73682491244E+03  0.73682491244E+03  0.00000000000E+00 0. -1.
          6    1    1    2  501    0  0.37056018302E+02  0.11515128331E+03 -0.41038225576E+01  0.21113694110E+03  0.17300000000E+03 0. -1.
         -6    1    1    2    0  503 -0.37056018302E+02 -0.11515128331E+03 -0.61149885448E+03  0.64691020673E+03  0.17300000000E+03 0. -1.
<mgrwt>
<rscale>  2 0.21109705E+03</rscale>
<asrwt>0</asrwt>
<pdfrwt beam="1">  1       21 0.18649574E-01 0.21109705E+03</pdfrwt>
<pdfrwt beam="2">  1       21 0.11335768E+00 0.21109705E+03</pdfrwt>
<totfact> 0.15772611E+04</totfact>
</mgrwt>
</event>
<event>
 4    1  0.4349106E+000  0.2535475E+03  0.7546771E-02  0.1111083E+00
         21   -1    0    0  503  502  0.00000000000E+00  0.00000000000E+00  0.15611654818E+04  0.15611654818E+04  0.00000000000E+00 0. -1.
         21   -1    0    0  501  503 -0.00000000000E+00 -0.00000000000E+00 -0.42236545185E+02  0.42236545185E+02  0.00000000000E+00 0. -1.
          6    1    1    2  501    0 -0.13446760642E+03  0.12757654102E+03  0.63257108212E+03  0.68149283556E+03  0.17300000000E+03 0. -1.
         -6    1    1    2    0  502  0.13446760642E+03 -0.12757654102E+03  0.88635785450E+03  0.92190919143E+03  0.17300000000E+03 0. -1.
<mgrwt>
<rscale>  2 0.25354745E+03</rscale>
<asrwt>0</asrwt>
<pdfrwt beam="1">  1       21 0.24017926E+00 0.25354745E+03</pdfrwt>
<pdfrwt beam="2">  1       21 0.64979312E-02 0.25354745E+03</pdfrwt>
<totfact> 0.12446243E+04</totfact>
</mgrwt>
</event>
<event>
 4    1  0.4349106E+000  0.2058438E+03  0.7546771E-02  0.1144900E+00
         21   -1    0    0  501  502  0.00000000000E+00  0.00000000000E+00  0.10208082260E+03  0.10208082260E+03  0.00000000000E+00 0. -1.
         21   -1    0    0  502  503 -0.00000000000E+00 -0.00000000000E+00 -0.91004997629E+03  0.91004997629E+03  0.00000000000E+00 0. -1.
          6    1    1    2  501    0 -0.61646401818E+02  0.92964521129E+02 -0.30765729793E+02  0.20813027453E+03  0.17300000000E+03 0. -1.
         -6    1    1    2    0  503  0.61646401818E+02 -0.92964521129E+02 -0.77720342390E+03  0.80400052436E+03  0.17300000000E+03 0. -1.
<mgrwt>
<rscale>  2 0.20584383E+03</rscale>
<asrwt>0</asrwt>
<pdfrwt beam="1">  1       21 0.15704742E-01 0.20584383E+03</pdfrwt>
<pdfrwt beam="2">  1       21 0.14000769E+00 0.20584383E+03</pdfrwt>
<totfact> 0.12787102E+04</totfact>
</mgrwt>
</event>
<event>
 4    1  0.4349106E+000  0.2165174E+03  0.7546771E-02  0.1136506E+00
         21   -1    0    0  501  502  0.00000000000E+00  0.00000000000E+00  0.32819178278E+03  0.32819178278E+03  0.00000000000E+00 0. -1.
         21   -1    0    0  502  503 -0.00000000000E+00 -0.00000000000E+00 -0.18196427106E+03  0.18196427106E+03  0.00000000000E+00 0. -1.
          6    1    1    2  501    0  0.98308354700E+02 -0.85359550460E+02  0.19138751046E+03  0.28897917679E+03  0.17300000000E+03 0. -1.
         -6    1    1    2    0  503 -0.98308354700E+02  0.85359550460E+02 -0.45159998738E+02  0.22117687706E+03  0.17300000000E+03 0. -1.
<mgrwt>
<rscale>  2 0.21651740E+03</rscale>
<asrwt>0</asrwt>
<pdfrwt beam="1">  1       21 0.50491043E-01 0.21651740E+03</pdfrwt>
<pdfrwt beam="2">  1       21 0.27994503E-01 0.21651740E+03</pdfrwt>
<totfact> 0.44975091E+04</totfact>
</mgrwt>
</event>
<event>
 4    1  0.4349106E+000  0.3427431E+03  0.7546771E-02  0.1065634E+00
         21   -1    0    0  501  502  0.00000000000E+00  0.00000000000E+00  0.23602142360E+03  0.23602142360E+03  0.00000000000E+00 0.  1.
         21   -1    0    0  502  503 -0.00000000000E+00 -0.00000000000E+00 -0.52178746573E+03  0.52178746573E+03  0.00000000000E+00 0. -1.
          6    1    1    2  501    0 -0.25787251131E+03 -0.14507099115E+03 -0.61508429218E+02  0.34821848232E+03  0.17300000000E+03 0. -1.
         -6    1    1    2    0  503  0.25787251131E+03  0.14507099115E+03 -0.22425761292E+03  0.40959040701E+03  0.17300000000E+03 0.  1.
<mgrwt>
<rscale>  2 0.34274309E+03</rscale>
<asrwt>0</asrwt>
<pdfrwt beam="1">  1       21 0.36310988E-01 0.34274309E+03</pdfrwt>
<pdfrwt beam="2">  1       21 0.80274995E-01 0.34274309E+03</pdfrwt>
<totfact> 0.92155266E+03</totfact>
</mgrwt>
</event>
<event>
 4    1  0.4349106E+000  0.2357194E+03  0.7546771E-02  0.1122678E+00
         21   -1    0    0  501  502  0.00000000000E+00  0.00000000000E+00  0.21522746291E+03  0.21522746291E+03  0.00000000000E+00 0.  1.
         21   -1    0    0  502  503 -0.00000000000E+00 -0.00000000000E+00 -0.33299070638E+03  0.33299070638E+03  0.00000000000E+00 0. -1.
          6    1    1    2  501    0  0.86711470492E+02 -0.13459475328E+03  0.71057667810E+02  0.24619670770E+03  0.17300000000E+03 0.  1.
         -6    1    1    2    0  503 -0.86711470492E+02  0.13459475328E+03 -0.18882091128E+03  0.30202146159E+03  0.17300000000E+03 0. -1.
<mgrwt>
<rscale>  2 0.23571938E+03</rscale>
<asrwt>0</asrwt>
<pdfrwt beam="1">  1       21 0.33111917E-01 0.23571938E+03</pdfrwt>
<pdfrwt beam="2">  1       21 0.51229340E-01 0.23571938E+03</pdfrwt>
<totfact> 0.31112391E+04</totfact>
</mgrwt>
</event>
<event>
 4    1  0.4349106E+000  0.2103292E+03  0.7546771E-02  0.1141306E+00
         21   -1    0    0  503  502  0.00000000000E+00  0.00000000000E+00  0.18233068965E+04  0.18233068965E+04  0.00000000000E+00 0.  1.
         21   -1    0    0  501  503 -0.00000000000E+00 -0.00000000000E+00 -0.31719544550E+02  0.31719544550E+02  0.00000000000E+00 0.  1.
          6    1    1    2  501    0 -0.40997737858E+02  0.11237679817E+03  0.44608216328E+03  0.49318115908E+03  0.17300000000E+03 0.  1.
         -6    1    1    2    0  502  0.40997737858E+02 -0.11237679817E+03  0.13455051886E+04  0.13618452819E+04  0.17300000000E+03 0.  1.
<mgrwt>
<rscale>  2 0.21032917E+03</rscale>
<asrwt>0</asrwt>
<pdfrwt beam="1">  1       21 0.28050867E+00 0.21032917E+03</pdfrwt>
<pdfrwt beam="2">  1       21 0.48799313E-02 0.21032917E+03</pdfrwt>
<totfact> 0.12178167E+04</totfact>
</mgrwt>
</event>
<event>
 4    1  0.4349106E+000  0.1749024E+03  0.7546771E-02  0.1172830E+00
         21   -1    0    0  503  502  0.00000000000E+00  0.00000000000E+00  0.26734577832E+03  0.26734577832E+03  0.00000000000E+00 0.  1.
         21   -1    0    0  501  503 -0.00000000000E+00 -0.00000000000E+00 -0.11907277492E+03  0.11907277492E+03  0.00000000000E+00 0.  1.
          6    1    1    2  501    0  0.20915300834E+02  0.14980192823E+02  0.35961720534E+02  0.17856119772E+03  0.17300000000E+03 0.  1.
         -6    1    1    2    0  502 -0.20915300834E+02 -0.14980192823E+02  0.11231128287E+03  0.20785735552E+03  0.17300000000E+03 0.  1.
<mgrwt>
<rscale>  2 0.17490242E+03</rscale>
<asrwt>0</asrwt>
<pdfrwt beam="1">  1       21 0.41130120E-01 0.17490242E+03</pdfrwt>
<pdfrwt beam="2">  1       21 0.18318889E-01 0.17490242E+03</pdfrwt>
<totfact> 0.15561291E+05</totfact>
</mgrwt>
</event>
<event>
 4    1  0.4349106E+000  0.1766858E+03  0.7546771E-02  0.1171050E+00
         21   -1    0    0  501  502  0.00000000000E+00  0.00000000000E+00  0.19008452287E+03  0.19008452287E+03  0.00000000000E+00 0. -1.
         21   -1    0    0  502  503 -0.00000000000E+00 -0.00000000000E+00 -0.41917398379E+03  0.41917398379E+03  0.00000000000E+00 0. -1.
          6    1    1    2  501    0  0.38522867364E+01  0.35693805858E+02  0.12302737991E+03  0.21529891801E+03  0.17300000000E+03 0. -1.
         -6    1    1    2    0  503 -0.38522867364E+01 -0.35693805858E+02 -0.35211684084E+03  0.39395958865E+03  0.17300000000E+03 0. -1.
<mgrwt>
<rscale>  2 0.17668585E+03</rscale>
<asrwt>0</asrwt>
<pdfrwt beam="1">  1       21 0.29243773E-01 0.17668585E+03</pdfrwt>
<pdfrwt beam="2">  1       21 0.64488305E-01 0.17668585E+03</pdfrwt>
<totfact> 0.25059509E+04</totfact>
</mgrwt>
</event>
<event>
 4    1  0.4349106E+000  0.2698864E+03  0.7546771E-02  0.1101345E+00
         21   -1    0    0  503  502  0.00000000000E+00  0.00000000000E+00  0.31912488219E+03  0.31912488219E+03  0.00000000000E+00 0.  1.
         21   -1    0    0  501  503 -0.00000000000E+00 -0.00000000000E+00 -0.60997402908E+03  0.60997402908E+03  0.00000000000E+00 0. -1.
          6    1    1    2  501    0 -0.20634217446E+03  0.18237055644E+02 -0.51292160345E+03  0.57959231745E+03  0.17300000000E+03 0. -1.
         -6    1    1    2    0  502  0.20634217446E+03 -0.18237055644E+02  0.22207245656E+03  0.34950659382E+03  0.17300000000E+03 0.  1.
<mgrwt>
<rscale>  2 0.26988643E+03</rscale>
<asrwt>0</asrwt>
<pdfrwt beam="1">  1       21 0.49096136E-01 0.26988643E+03</pdfrwt>
<pdfrwt beam="2">  1       21 0.93842157E-01 0.26988643E+03</pdfrwt>
<totfact> 0.35700115E+03</totfact>
</mgrwt>
</event>
<event>
 4    1  0.4349106E+000  0.1992906E+03  0.7546771E-02  0.1150339E+00
         21   -1    0    0  501  502  0.00000000000E+00  0.00000000000E+00  0.56495454657E+03  0.56495454657E+03  0.00000000000E+00 0.  1.
         21   -1    0    0  502  503 -0.00000000000E+00 -0.00000000000E+00 -0.88504396506E+02  0.88504396506E+02  0.00000000000E+00 0.  1.
          6    1    1    2  501    0 -0.81399352646E+02 -0.56230708455E+02  0.38640340187E+03  0.43476929073E+03  0.17300000000E+03 0.  1.
         -6    1    1    2    0  503  0.81399352646E+02  0.56230708455E+02  0.90046748198E+02  0.21868965235E+03  0.17300000000E+03 0.  1.
<mgrwt>
<rscale>  2 0.19929061E+03</rscale>
<asrwt>0</asrwt>
<pdfrwt beam="1">  1       21 0.86916082E-01 0.19929061E+03</pdfrwt>
<pdfrwt beam="2">  1       21 0.13616061E-01 0.19929061E+03</pdfrwt>
<totfact> 0.53061018E+04</totfact>
</mgrwt>
</event>
<event>
 4    1  0.4349106E+000  0.2611881E+03  0.7546771E-02  0.1106432E+00
         21   -1    0    0  503  502  0.00000000000E+00  0.00000000000E+00  0.85509739802E+03  0.85509739802E+03  0.00000000000E+00 0.  1.
         21   -1    0    0  501  503 -0.00000000000E+00 -0.00000000000E+00 -0.12432994548E+03  0.12432994548E+03  0.00000000000E+00 0.  1.
          6    1    1    2  501    0  0.13229840200E+03  0.14417815089E+03  0.72240008979E+02  0.27099414249E+03  0.17300000000E+03 0.  1.
         -6    1    1    2    0  502 -0.13229840200E+03 -0.14417815089E+03  0.65852744357E+03  0.70843320101E+03  0.17300000000E+03 0.  1.
<mgrwt>
<rscale>  2 0.26118807E+03</rscale>
<asrwt>0</asrwt>
<pdfrwt beam="1">  1       21 0.13155344E+00 0.26118807E+03</pdfrwt>
<pdfrwt beam="2">  1       21 0.19127684E-01 0.26118807E+03</pdfrwt>
<totfact> 0.10065944E+04</totfact>
</mgrwt>
</event>
<event>
 4    1  0.4349106E+000  0.2121382E+03  0.7546771E-02  0.1139884E+00
         21   -1    0    0  503  502  0.00000000000E+00  0.00000000000E+00  0.15370456491E+03  0.15370456491E+03  0.00000000000E+00 0. -1.
         21   -1    0    0  501  503 -0.00000000000E+00 -0.00000000000E+00 -0.31117314456E+03  0.31117314456E+03  0.00000000000E+00 0.  1.
          6    1    1    2  501    0 -0.12274919441E+03 -0.25009179824E+01 -0.13523567406E+03  0.25157763584E+03  0.17300000000E+03 0.  1.
         -6    1    1    2    0  502  0.12274919441E+03  0.25009179824E+01 -0.22232905594E+02  0.21330007363E+03  0.17300000000E+03 0.  1.
<mgrwt>
<rscale>  2 0.21213821E+03</rscale>
<asrwt>0</asrwt>
<pdfrwt beam="1">  1       21 0.23646857E-01 0.21213821E+03</pdfrwt>
<pdfrwt beam="2">  1       21 0.47872791E-01 0.21213821E+03</pdfrwt>
<totfact> 0.69630308E+04</totfact>
</mgrwt>
</event>
<event>
 4    1  0.4349106E+000  0.1929515E+03  0.7546771E-02  0.1155826E+00
         21   -1    0    0  503  502  0.00000000000E+00  0.00000000000E+00  0.16370368660E+04  0.16370368660E+04  0.00000000000E+00 0. -1.
         21   -1    0    0  501  503 -0.00000000000E+00 -0.00000000000E+00 -0.64841569561E+02  0.64841569561E+02  0.00000000000E+00 0. -1.
          6    1    1    2  501    0 -0.43324266129E+02 -0.73649773619E+02  0.10043874013E+03  0.21752751943E+03  0.17300000000E+03 0. -1.
         -6    1    1    2    0  502  0.43324266129E+02  0.73649773619E+02  0.14717565563E+04  0.14843509161E+04  0.17300000000E+03 0. -1.
<mgrwt>
<rscale>  2 0.19295150E+03</rscale>
<asrwt>0</asrwt>
<pdfrwt beam="1">  1       21 0.25185179E+00 0.19295150E+03</pdfrwt>
<pdfrwt beam="2">  1       21 0.99756273E-02 0.19295150E+03</pdfrwt>
<totfact> 0.52832061E+03</totfact>
</mgrwt>
</event>
<event>
 4    1  0.4349106E+000  0.2854208E+03  0.7546771E-02  0.1092765E+00
         21   -1    0    0  503  502  0.00000000000E+00  0.00000000000E+00  0.65837671440E+03  0.65837671440E+03  0.00000000000E+00 0.  1.
         21   -1    0    0  501  503 -0.00000000000E+00 -0.00000000000E+00 -0.26571769912E+03  0.26571769912E+03  0.00000000000E+00 0.  1.
          6    1    1    2  501    0 -0.94166714173E+02  0.20656392436E+03 -0.14141788466E+03  0.31853421010E+03  0.17300000000E+03 0.  1.
         -6    1    1    2    0  502  0.94166714173E+02 -0.20656392436E+03  0.53407689994E+03  0.60556020341E+03  0.17300000000E+03 0.  1.
<mgrwt>
<rscale>  2 0.28542079E+03</rscale>
<asrwt>0</asrwt>
<pdfrwt beam="1">  1       21 0.10128872E+00 0.28542079E+03</pdfrwt>
<pdfrwt beam="2">  1       21 0.40879646E-01 0.28542079E+03</pdfrwt>
<totfact> 0.43101076E+03</totfact>
</mgrwt>
</event>
<event>
 4    1  0.4349106E+000  0.1888236E+03  0.7546771E-02  0.1159527E+00
         21   -1    0    0  503  502  0.00000000000E+00  0.00000000000E+00  0.15305857968E+03  0.15305857968E+03  0.00000000000E+00 0. -1.
         21   -1    0    0  501  503 -0.00000000000E+00 -0.00000000000E+00 -0.23432985559E+03  0.23432985559E+03  0.00000000000E+00 0. -1.
          6    1    1    2  501    0  0.45600050086E+02 -0.60381877746E+02 -0.25748966243E+02  0.19057110219E+03  0.17300000000E+03 0. -1.
         -6    1    1    2    0  502 -0.45600050086E+02  0.60381877746E+02 -0.55522309675E+02  0.19681733308E+03  0.17300000000E+03 0. -1.
<mgrwt>
<rscale>  2 0.18882356E+03</rscale>
<asrwt>0</asrwt>
<pdfrwt beam="1">  1       21 0.23547474E-01 0.18882356E+03</pdfrwt>
<pdfrwt beam="2">  1       21 0.36050747E-01 0.18882356E+03</pdfrwt>
<totfact> 0.12611663E+05</totfact>
</mgrwt>
</event>
<event>
 4    1  0.4349106E+000  0.1988995E+03  0.7546771E-02  0.1150671E+00
         21   -1    0    0  501  502  0.00000000000E+00  0.00000000000E+00  0.94371505510E+03  0.94371505510E+03  0.00000000000E+00 0.  1.
         21   -1    0    0  502  503 -0.00000000000E+00 -0.00000000000E+00 -0.44924611806E+02  0.44924611806E+02  0.00000000000E+00 0. -1.
          6    1    1    2  501    0 -0.72509064617E+02  0.66139548180E+02  0.57722267032E+03  0.61053011016E+03  0.17300000000E+03 0.  1.
         -6    1    1    2    0  503  0.72509064617E+02 -0.66139548180E+02  0.32156777297E+03  0.37810955674E+03  0.17300000000E+03 0. -1.
<mgrwt>
<rscale>  2 0.19889948E+03</rscale>
<asrwt>0</asrwt>
<pdfrwt beam="1">  1       21 0.14518692E+00 0.19889948E+03</pdfrwt>
<pdfrwt beam="2">  1       21 0.69114795E-02 0.19889948E+03</pdfrwt>
<totfact> 0.50165354E+04</totfact>
</mgrwt>
</event>
<event>
 4    1  0.4349106E+000  0.1996799E+03  0.7546771E-02  0.1150009E+00
         21   -1    0    0  503  502  0.00000000000E+00  0.00000000000E+00  0.46710140205E+02  0.46710140205E+02  0.00000000000E+00 0.  1.
         21   -1    0    0  501  503 -0.00000000000E+00 -0.00000000000E+00 -0.10710823537E+04  0.10710823537E+04  0.00000000000E+00 0.  1.
          6    1    1    2  501    0  0.98576381550E+02 -0.15024964551E+02 -0.76402677024E+03  0.78968915290E+03  0.17300000000E+03 0.  1.
         -6    1    1    2    0  502 -0.98576381550E+02  0.15024964551E+02 -0.26034544327E+03  0.32810334102E+03  0.17300000000E+03 0.  1.
<mgrwt>
<rscale>  2 0.19967988E+03</rscale>
<asrwt>0</asrwt>
<pdfrwt beam="1">  1       21 0.71861757E-02 0.19967988E+03</pdfrwt>
<pdfrwt beam="2">  1       21 0.16478189E+00 0.19967988E+03</pdfrwt>
<totfact> 0.33442734E+04</totfact>
</mgrwt>
</event>
<event>
 4    1  0.4349106E+000  0.1971319E+03  0.7546771E-02  0.1152182E+00
         21   -1    0    0  501  502  0.00000000000E+00  0.00000000000E+00  0.40215229502E+03  0.40215229502E+03  0.00000000000E+00 0.  1.
         21   -1    0    0  502  503 -0.00000000000E+00 -0.00000000000E+00 -0.10807178028E+03  0.10807178028E+03  0.00000000000E+00 0. -1.
          6    1    1    2  501    0 -0.94156754782E+02  0.81530885190E+01  0.23003963300E+03  0.30295082122E+03  0.17300000000E+03 0.  1.
         -6    1    1    2    0  503  0.94156754782E+02 -0.81530885190E+01  0.64040881739E+02  0.20727325408E+03  0.17300000000E+03 0. -1.
<mgrwt>
<rscale>  2 0.19713185E+03</rscale>
<asrwt>0</asrwt>
<pdfrwt beam="1">  1       21 0.61869583E-01 0.19713185E+03</pdfrwt>
<pdfrwt beam="2">  1       21 0.16626428E-01 0.19713185E+03</pdfrwt>
<totfact> 0.78672129E+04</totfact>
</mgrwt>
</event>
<event>
 4    1  0.4349106E+000  0.2559668E+03  0.7546771E-02  0.1109591E+00
         21   -1    0    0  501  502  0.00000000000E+00  0.00000000000E+00  0.10533788255E+04  0.10533788255E+04  0.00000000000E+00 0.  1.
         21   -1    0    0  502  503 -0.00000000000E+00 -0.00000000000E+00 -0.65525725230E+02  0.65525725230E+02  0.00000000000E+00 0.  1.
          6    1    1    2  501    0  0.14861192915E+03  0.11620893167E+03  0.61998473890E+03  0.67074592638E+03  0.17300000000E+03 0.  1.
         -6    1    1    2    0  503 -0.14861192915E+03 -0.11620893167E+03  0.36786836140E+03  0.44815862438E+03  0.17300000000E+03 0.  1.
<mgrwt>
<rscale>  2 0.25596684E+03</rscale>
<asrwt>0</asrwt>
<pdfrwt beam="1">  1       21 0.16205827E+00 0.25596684E+03</pdfrwt>
<pdfrwt beam="2">  1       21 0.10080882E-01 0.25596684E+03</pdfrwt>
<totfact> 0.18695676E+04</totfact>
</mgrwt>
</event>
<event>
 4    1  0.4349106E+000  0.2249269E+03  0.7546771E-02  0.1130262E+00
         21   -1    0    0  501  502  0.00000000000E+00  0.00000000000E+00  0.42695045583E+03  0.42695045583E+03  0.00000000000E+00 0. -1.
         21   -1    0    0  502  503 -0.00000000000E+00 -0.00000000000E+00 -0.28359974903E+03  0.28359974903E+03  0.00000000000E+00 0. -1.
          6    1    1    2  501    0 -0.12709324967E+03 -0.67159750760E+02  0.34275049178E+03  0.40996344453E+03  0.17300000000E+03 0. -1.
         -6    1    1    2    0  503  0.12709324967E+03  0.67159750760E+02 -0.19939978498E+03  0.30058676033E+03  0.17300000000E+03 0. -1.
<mgrwt>
<rscale>  2 0.22492694E+03</rscale>
<asrwt>0</asrwt>
<pdfrwt beam="1">  1       21 0.65684685E-01 0.22492694E+03</pdfrwt>
<pdfrwt beam="2">  1       21 0.43630731E-01 0.22492694E+03</pdfrwt>
<totfact> 0.10529948E+04</totfact>
</mgrwt>
</event>
<event>
 4    1  0.4349106E+000  0.2299393E+03  0.7546771E-02  0.1126683E+00
         21   -1    0    0  501  502  0.00000000000E+00  0.00000000000E+00  0.46414049353E+03  0.46414049353E+03  0.00000000000E+00 0. -1.
         21   -1    0    0  502  503 -0.00000000000E+00 -0.00000000000E+00 -0.22609190350E+03  0.22609190350E+03  0.00000000000E+00 0. -1.
          6    1    1    2  501    0 -0.14882235403E+03 -0.28195253615E+02  0.36211964051E+03  0.42895535832E+03  0.17300000000E+03 0. -1.
         -6    1    1    2    0  503  0.14882235403E+03  0.28195253615E+02 -0.12407105049E+03  0.26127703871E+03  0.17300000000E+03 0. -1.
<mgrwt>
<rscale>  2 0.22993926E+03</rscale>
<asrwt>0</asrwt>
<pdfrwt beam="1">  1       21 0.71406230E-01 0.22993926E+03</pdfrwt>
<pdfrwt beam="2">  1       21 0.34783370E-01 0.22993926E+03</pdfrwt>
<totfact> 0.13805979E+04</totfact>
</mgrwt>
</event>
<event>
 4    1  0.4349106E+000  0.1865975E+03  0.7546771E-02  0.1161566E+00
         21   -1    0    0  503  502  0.00000000000E+00  0.00000000000E+00  0.13909624428E+04  0.13909624428E+04  0.00000000000E+00 0.  1.
         21   -1    0    0  501  503 -0.00000000000E+00 -0.00000000000E+00 -0.86657586606E+02  0.86657586606E+02  0.00000000000E+00 0.  1.
          6    1    1    2  501    0 -0.54621627095E+02  0.43659101854E+02  0.29121162972E+02  0.18885624547E+03  0.17300000000E+03 0.  1.
         -6    1    1    2    0  502  0.54621627095E+02 -0.43659101854E+02  0.12751836933E+04  0.12887637840E+04  0.17300000000E+03 0.  1.
<mgrwt>
<rscale>  2 0.18659753E+03</rscale>
<asrwt>0</asrwt>
<pdfrwt beam="1">  1       21 0.21399421E+00 0.18659753E+03</pdfrwt>
<pdfrwt beam="2">  1       21 0.13331937E-01 0.18659753E+03</pdfrwt>
<totfact> 0.53529359E+03</totfact>
</mgrwt>
</event>
<event>
 4    1  0.4349106E+000  0.1970171E+03  0.7546771E-02  0.1152280E+00
         21   -1    0    0  501  502  0.00000000000E+00  0.00000000000E+00  0.54447257904E+02  0.54447257904E+02  0.00000000000E+00 0.  1.
         21   -1    0    0  502  503 -0.00000000000E+00 -0.00000000000E+00 -0.93293732617E+03  0.93293732617E+03  0.00000000000E+00 0. -1.
          6    1    1    2  501    0 -0.46208947017E+02  0.82167227478E+02 -0.19948687273E+03  0.28037605541E+03  0.17300000000E+03 0.  1.
         -6    1    1    2    0  503  0.46208947017E+02 -0.82167227478E+02 -0.67900319554E+03  0.70700852866E+03  0.17300000000E+03 0. -1.
<mgrwt>
<rscale>  2 0.19701706E+03</rscale>
<asrwt>0</asrwt>
<pdfrwt beam="1">  1       21 0.83765020E-02 0.19701706E+03</pdfrwt>
<pdfrwt beam="2">  1       21 0.14352881E+00 0.19701706E+03</pdfrwt>
<totfact> 0.37058786E+04</totfact>
</mgrwt>
</event>
<event>
 4    1  0.4349106E+000  0.1768240E+03  0.7546771E-02  0.1170913E+00
         21   -1    0    0  503  502  0.00000000000E+00  0.00000000000E+00  0.26259312884E+03  0.26259312884E+03  0.00000000000E+00 0. -1.
         21   -1    0    0  501  503 -0.00000000000E+00 -0.00000000000E+00 -0.12085219901E+03  0.12085219901E+03  0.00000000000E+00 0. -1.
          6    1    1    2  501    0 -0.70591409200E+01 -0.35887185511E+02  0.47582224751E+02  0.18311414382E+03  0.17300000000E+03 0. -1.
         -6    1    1    2    0  502  0.70591409200E+01  0.35887185511E+02  0.94158705070E+02  0.20033118403E+03  0.17300000000E+03 0. -1.
<mgrwt>
<rscale>  2 0.17682398E+03</rscale>
<asrwt>0</asrwt>
<pdfrwt beam="1">  1       21 0.40398943E-01 0.17682398E+03</pdfrwt>
<pdfrwt beam="2">  1       21 0.18592646E-01 0.17682398E+03</pdfrwt>
<totfact> 0.15689319E+05</totfact>
</mgrwt>
</event>
<event>
 4    1  0.4349106E+000  0.2975492E+03  0.7546771E-02  0.1086472E+00
         21   -1    0    0  501  502  0.00000000000E+00  0.00000000000E+00  0.52843076360E+02  0.52843076360E+02  0.00000000000E+00 0.  1.
         21   -1    0    0  502  503 -0.00000000000E+00 -0.00000000000E+00 -0.17675568222E+04  0.17675568222E+04  0.00000000000E+00 0. -1.
          6    1    1    2  501    0  0.12903174054E+03 -0.20483491553E+03 -0.64957204090E+03  0.71447838946E+03  0.17300000000E+03 0. -1.
         -6    1    1    2    0  503 -0.12903174054E+03  0.20483491553E+03 -0.10651417050E+04  0.11059215091E+04  0.17300000000E+03 0. -1.
<mgrwt>
<rscale>  2 0.29754921E+03</rscale>
<asrwt>0</asrwt>
<pdfrwt beam="1">  1       21 0.81297044E-02 0.29754921E+03</pdfrwt>
<pdfrwt beam="2">  1       21 0.27193181E+00 0.29754921E+03</pdfrwt>
<totfact> 0.52773556E+03</totfact>
</mgrwt>
</event>
<event>
 4    1  0.4349106E+000  0.1759153E+03  0.7546771E-02  0.1171816E+00
         21   -1    0    0  503  502  0.00000000000E+00  0.00000000000E+00  0.10468233165E+03  0.10468233165E+03  0.00000000000E+00 0.  1.
         21   -1    0    0  501  503 -0.00000000000E+00 -0.00000000000E+00 -0.30915378076E+03  0.30915378076E+03  0.00000000000E+00 0. -1.
          6    1    1    2  501    0 -0.20634668767E+02  0.24318949786E+02 -0.14552887055E+03  0.22830867928E+03  0.17300000000E+03 0. -1.
         -6    1    1    2    0  502  0.20634668767E+02 -0.24318949786E+02 -0.58942578571E+02  0.18552743313E+03  0.17300000000E+03 0.  1.
<mgrwt>
<rscale>  2 0.17591532E+03</rscale>
<asrwt>0</asrwt>
<pdfrwt beam="1">  1       21 0.16104974E-01 0.17591532E+03</pdfrwt>
<pdfrwt beam="2">  1       21 0.47562120E-01 0.17591532E+03</pdfrwt>
<totfact> 0.14645453E+05</totfact>
</mgrwt>
</event>
<event>
 4    1  0.4349106E+000  0.3482588E+03  0.7546771E-02  0.1063332E+00
         21   -1    0    0  503  502  0.00000000000E+00  0.00000000000E+00  0.51293435135E+03  0.51293435135E+03  0.00000000000E+00 0.  1.
         21   -1    0    0  501  503 -0.00000000000E+00 -0.00000000000E+00 -0.27278384653E+03  0.27278384653E+03  0.00000000000E+00 0. -1.
          6    1    1    2  501    0 -0.13680702739E+02  0.30194043163E+03 -0.23299663889E+02  0.34903733356E+03  0.17300000000E+03 0. -1.
         -6    1    1    2    0  502  0.13680702739E+02 -0.30194043163E+03  0.26345016871E+03  0.43668086433E+03  0.17300000000E+03 0.  1.
<mgrwt>
<rscale>  2 0.34825879E+03</rscale>
<asrwt>0</asrwt>
<pdfrwt beam="1">  1       21 0.78912977E-01 0.34825879E+03</pdfrwt>
<pdfrwt beam="2">  1       21 0.41966746E-01 0.34825879E+03</pdfrwt>
<totfact> 0.71164233E+03</totfact>
</mgrwt>
</event>
<event>
 4    1  0.4349106E+000  0.1809874E+03  0.7546771E-02  0.1166851E+00
         21   -1    0    0  503  502  0.00000000000E+00  0.00000000000E+00  0.12942689638E+03  0.12942689638E+03  0.00000000000E+00 0. -1.
         21   -1    0    0  501  503 -0.00000000000E+00 -0.00000000000E+00 -0.61517915754E+03  0.61517915754E+03  0.00000000000E+00 0.  1.
          6    1    1    2  501    0 -0.38592056092E+02 -0.36579987501E+02 -0.52850657673E+03  0.55863730983E+03  0.17300000000E+03 0.  1.
         -6    1    1    2    0  502  0.38592056092E+02  0.36579987501E+02  0.42754315583E+02  0.18596874409E+03  0.17300000000E+03 0. -1.
<mgrwt>
<rscale>  2 0.18098741E+03</rscale>
<asrwt>0</asrwt>
<pdfrwt beam="1">  1       21 0.19911830E-01 0.18098741E+03</pdfrwt>
<pdfrwt beam="2">  1       21 0.94642950E-01 0.18098741E+03</pdfrwt>
<totfact> 0.21904179E+04</totfact>
</mgrwt>
</event>
<event>
 4    1  0.4349106E+000  0.2463517E+03  0.7546771E-02  0.1115632E+00
         21   -1    0    0  501  502  0.00000000000E+00  0.00000000000E+00  0.10658560913E+03  0.10658560913E+03  0.00000000000E+00 0.  1.
         21   -1    0    0  502  503 -0.00000000000E+00 -0.00000000000E+00 -0.90818335723E+03  0.90818335723E+03  0.00000000000E+00 0. -1.
          6    1    1    2  501    0 -0.16681554365E+03  0.54154712772E+02 -0.90903153560E+02  0.26258816014E+03  0.17300000000E+03 0.  1.
         -6    1    1    2    0  503  0.16681554365E+03 -0.54154712772E+02 -0.71069459455E+03  0.75218080622E+03  0.17300000000E+03 0. -1.
<mgrwt>
<rscale>  2 0.24635170E+03</rscale>
<asrwt>0</asrwt>
<pdfrwt beam="1">  1       21 0.16397786E-01 0.24635170E+03</pdfrwt>
<pdfrwt beam="2">  1       21 0.13972052E+00 0.24635170E+03</pdfrwt>
<totfact> 0.11571172E+04</totfact>
</mgrwt>
</event>
<event>
 4    1  0.4349106E+000  0.2171244E+03  0.7546771E-02  0.1136045E+00
         21   -1    0    0  501  502  0.00000000000E+00  0.00000000000E+00  0.13747046268E+03  0.13747046268E+03  0.00000000000E+00 0. -1.
         21   -1    0    0  502  503 -0.00000000000E+00 -0.00000000000E+00 -0.13571811869E+04  0.13571811869E+04  0.00000000000E+00 0.  1.
          6    1    1    2  501    0  0.13119726778E+03 -0.11305619094E+01  0.36190633742E+02  0.22011988373E+03  0.17300000000E+03 0. -1.
         -6    1    1    2    0  503 -0.13119726778E+03  0.11305619094E+01 -0.12559013580E+04  0.12745317659E+04  0.17300000000E+03 0.  1.
<mgrwt>
<rscale>  2 0.21712439E+03</rscale>
<asrwt>0</asrwt>
<pdfrwt beam="1">  1       21 0.21149303E-01 0.21712439E+03</pdfrwt>
<pdfrwt beam="2">  1       21 0.20879710E+00 0.21712439E+03</pdfrwt>
<totfact> 0.23957687E+03</totfact>
</mgrwt>
</event>
<event>
 4    1  0.4349106E+000  0.1884364E+03  0.7546771E-02  0.1159879E+00
         21   -1    0    0  501  502  0.00000000000E+00  0.00000000000E+00  0.66414634128E+02  0.66414634128E+02  0.00000000000E+00 0. -1.
         21   -1    0    0  502  503 -0.00000000000E+00 -0.00000000000E+00 -0.14367087182E+04  0.14367087182E+04  0.00000000000E+00 0. -1.
          6    1    1    2  501    0  0.52837479411E+02  0.52796739966E+02 -0.89623801138E+02  0.20866413375E+03  0.17300000000E+03 0. -1.
         -6    1    1    2    0  503 -0.52837479411E+02 -0.52796739966E+02 -0.12806702829E+04  0.12944592186E+04  0.17300000000E+03 0. -1.
<mgrwt>
<rscale>  2 0.18843645E+03</rscale>
<asrwt>0</asrwt>
<pdfrwt beam="1">  1       21 0.10217636E-01 0.18843645E+03</pdfrwt>
<pdfrwt beam="2">  1       21 0.22103212E+00 0.18843645E+03</pdfrwt>
<totfact> 0.77747330E+03</totfact>
</mgrwt>
</event>
<event>
 4    1  0.4349106E+000  0.1927358E+03  0.7546771E-02  0.1156017E+00
         21   -1    0    0  503  502  0.00000000000E+00  0.00000000000E+00  0.17157502325E+03  0.17157502325E+03  0.00000000000E+00 0. -1.
         21   -1    0    0  501  503 -0.00000000000E+00 -0.00000000000E+00 -0.37228309938E+03  0.37228309938E+03  0.00000000000E+00 0. -1.
          6    1    1    2  501    0 -0.77799312903E+02 -0.34137345002E+02 -0.27625580640E+03  0.33684471494E+03  0.17300000000E+03 0. -1.
         -6    1    1    2    0  502  0.77799312903E+02  0.34137345002E+02  0.75547730272E+02  0.20701340768E+03  0.17300000000E+03 0. -1.
<mgrwt>
<rscale>  2 0.19273581E+03</rscale>
<asrwt>0</asrwt>
<pdfrwt beam="1">  1       21 0.26396158E-01 0.19273581E+03</pdfrwt>
<pdfrwt beam="2">  1       21 0.57274322E-01 0.19273581E+03</pdfrwt>
<totfact> 0.39069434E+04</totfact>
</mgrwt>
</event>
<event>
 4    1  0.4349106E+000  0.2463707E+03  0.7546771E-02  0.1115620E+00
         21   -1    0    0  501  502  0.00000000000E+00  0.00000000000E+00  0.45541264942E+03  0.45541264942E+03  0.00000000000E+00 0.  1.
         21   -1    0    0  502  503 -0.00000000000E+00 -0.00000000000E+00 -0.35441179413E+03  0.35441179413E+03  0.00000000000E+00 0. -1.
          6    1    1    2  501    0  0.15010511362E+03  0.90763271341E+02  0.37033837187E+03  0.44480223273E+03  0.17300000000E+03 0.  1.
         -6    1    1    2    0  503 -0.15010511362E+03 -0.90763271341E+02 -0.26933751658E+03  0.36502221083E+03  0.17300000000E+03 0. -1.
<mgrwt>
<rscale>  2 0.24637069E+03</rscale>
<asrwt>0</asrwt>
<pdfrwt beam="1">  1       21 0.70063484E-01 0.24637069E+03</pdfrwt>
<pdfrwt beam="2">  1       21 0.54524891E-01 0.24637069E+03</pdfrwt>
<totfact> 0.56598316E+03</totfact>
</mgrwt>
</event>
<event>
 4    1  0.4349106E+000  0.1897797E+03  0.7546771E-02  0.1158660E+00
         21   -1    0    0  501  502  0.00000000000E+00  0.00000000000E+00  0.14764076884E+03  0.14764076884E+03  0.00000000000E+00 0. -1.
         21   -1    0    0  502  503 -0.00000000000E+00 -0.00000000000E+00 -0.30702130515E+03  0.30702130515E+03  0.00000000000E+00 0. -1.
          6    1    1    2  501    0 -0.30549192499E+02  0.71791883227E+02  0.23349591891E+02  0.19121069819E+03  0.17300000000E+03 0.  1.
         -6    1    1    2    0  503  0.30549192499E+02 -0.71791883227E+02 -0.18273012820E+03  0.26345137580E+03  0.17300000000E+03 0.  1.
<mgrwt>
<rscale>  2 0.18977968E+03</rscale>
<asrwt>0</asrwt>
<pdfrwt beam="1">  1       21 0.22713965E-01 0.18977968E+03</pdfrwt>
<pdfrwt beam="2">  1       21 0.47234046E-01 0.18977968E+03</pdfrwt>
<totfact> 0.78029084E+04</totfact>
</mgrwt>
</event>
<event>
 4    1  0.4349106E+000  0.1857601E+03  0.7546771E-02  0.1162342E+00
         21   -1    0    0  503  502  0.00000000000E+00  0.00000000000E+00  0.52174658123E+03  0.52174658123E+03  0.00000000000E+00 0. -1.
         21   -1    0    0  501  503 -0.00000000000E+00 -0.00000000000E+00 -0.11738988613E+03  0.11738988613E+03  0.00000000000E+00 0. -1.
          6    1    1    2  501    0  0.66779121285E+02  0.10880277789E+02 -0.89792890934E+01  0.18597703922E+03  0.17300000000E+03 0. -1.
         -6    1    1    2    0  502 -0.66779121285E+02 -0.10880277789E+02  0.41333598419E+03  0.45315942814E+03  0.17300000000E+03 0. -1.
<mgrwt>
<rscale>  2 0.18576015E+03</rscale>
<asrwt>0</asrwt>
<pdfrwt beam="1">  1       21 0.80268704E-01 0.18576015E+03</pdfrwt>
<pdfrwt beam="2">  1       21 0.18059983E-01 0.18576015E+03</pdfrwt>
<totfact> 0.38223034E+04</totfact>
</mgrwt>
</event>
<event>
 4    1  0.4349106E+000  0.1989654E+03  0.7546771E-02  0.1150615E+00
         21   -1    0    0  501  502  0.00000000000E+00  0.00000000000E+00  0.52389043122E+03  0.52389043122E+03  0.00000000000E+00 0. -1.
         21   -1    0    0  502  503 -0.00000000000E+00 -0.00000000000E+00 -0.85166794294E+02  0.85166794294E+02  0.00000000000E+00 0.  1.
          6    1    1    2  501    0 -0.71821486870E+02  0.67081275246E+02  0.32161885313E+03  0.37818766525E+03  0.17300000000E+03 0. -1.
         -6    1    1    2    0  503  0.71821486870E+02 -0.67081275246E+02  0.11710478380E+03  0.23086956026E+03  0.17300000000E+03 0.  1.
<mgrwt>
<rscale>  2 0.19896538E+03</rscale>
<asrwt>0</asrwt>
<pdfrwt beam="1">  1       21 0.80598526E-01 0.19896538E+03</pdfrwt>
<pdfrwt beam="2">  1       21 0.13102584E-01 0.19896538E+03</pdfrwt>
<totfact> 0.67577258E+04</totfact>
</mgrwt>
</event>
<event>
 4    1  0.4349106E+000  0.2352890E+03  0.7546771E-02  0.1122972E+00
         21   -1    0    0  501  502  0.00000000000E+00  0.00000000000E+00  0.28873399722E+02  0.28873399722E+02  0.00000000000E+00 0. -1.
         21   -1    0    0  502  503 -0.00000000000E+00 -0.00000000000E+00 -0.19236863329E+04  0.19236863329E+04  0.00000000000E+00 0.  1.
          6    1    1    2  501    0  0.14303006487E+03  0.70528880678E+02 -0.10033591097E+04  0.10305777144E+04  0.17300000000E+03 0. -1.
         -6    1    1    2    0  503 -0.14303006487E+03 -0.70528880678E+02 -0.89145382344E+03  0.92198201815E+03  0.17300000000E+03 0. -1.
<mgrwt>
<rscale>  2 0.23528902E+03</rscale>
<asrwt>0</asrwt>
<pdfrwt beam="1">  1       21 0.44420609E-02 0.23528902E+03</pdfrwt>
<pdfrwt beam="2">  1       21 0.29595178E+00 0.23528902E+03</pdfrwt>
<totfact> 0.11353932E+04</totfact>
</mgrwt>
</event>
<event>
 4    1  0.4349106E+000  0.1796778E+03  0.7546771E-02  0.1168115E+00
         21   -1    0    0  501  502  0.00000000000E+00  0.00000000000E+00  0.16095847728E+03  0.16095847728E+03  0.00000000000E+00 0. -1.
         21   -1    0    0  502  503 -0.00000000000E+00 -0.00000000000E+00 -0.23942719305E+03  0.23942719305E+03  0.00000000000E+00 0. -1.
          6    1    1    2  501    0 -0.31865667977E+02 -0.36601931228E+02  0.41409980318E+02  0.18438792974E+03  0.17300000000E+03 0.  1.
         -6    1    1    2    0  503  0.31865667977E+02  0.36601931228E+02 -0.11987869608E+03  0.21599774059E+03  0.17300000000E+03 0.  1.
<mgrwt>
<rscale>  2 0.17967783E+03</rscale>
<asrwt>0</asrwt>
<pdfrwt beam="1">  1       21 0.24762843E-01 0.17967783E+03</pdfrwt>
<pdfrwt beam="2">  1       21 0.36834953E-01 0.17967783E+03</pdfrwt>
<totfact> 0.11015800E+05</totfact>
</mgrwt>
</event>
<event>
 4    1  0.4349106E+000  0.2005097E+03  0.7546771E-02  0.1149310E+00
         21   -1    0    0  503  502  0.00000000000E+00  0.00000000000E+00  0.35001850965E+02  0.35001850965E+02  0.00000000000E+00 0.  1.
         21   -1    0    0  501  503 -0.00000000000E+00 -0.00000000000E+00 -0.12245365424E+04  0.12245365424E+04  0.00000000000E+00 0.  1.
          6    1    1    2  501    0  0.10128377743E+03  0.40920523213E+01 -0.75156422017E+03  0.77785148036E+03  0.17300000000E+03 0.  1.
         -6    1    1    2    0  502 -0.10128377743E+03 -0.40920523213E+01 -0.43797047131E+03  0.48168691305E+03  0.17300000000E+03 0.  1.
<mgrwt>
<rscale>  2 0.20050972E+03</rscale>
<asrwt>0</asrwt>
<pdfrwt beam="1">  1       21 0.53849019E-02 0.20050972E+03</pdfrwt>
<pdfrwt beam="2">  1       21 0.18839018E+00 0.20050972E+03</pdfrwt>
<totfact> 0.37707567E+04</totfact>
</mgrwt>
</event>
<event>
 4    1  0.4349106E+000  0.2113792E+03  0.7546771E-02  0.1140478E+00
         21   -1    0    0  501  502  0.00000000000E+00  0.00000000000E+00  0.59158618078E+03  0.59158618078E+03  0.00000000000E+00 0. -1.
         21   -1    0    0  502  503 -0.00000000000E+00 -0.00000000000E+00 -0.89041966821E+02  0.89041966821E+02  0.00000000000E+00 0. -1.
          6    1    1    2  501    0 -0.70385696564E+02 -0.98984871842E+02  0.38385227871E+03  0.43820511522E+03  0.17300000000E+03 0. -1.
         -6    1    1    2    0  503  0.70385696564E+02  0.98984871842E+02  0.11869193525E+03  0.24242303238E+03  0.17300000000E+03 0. -1.
<mgrwt>
<rscale>  2 0.21137916E+03</rscale>
<asrwt>0</asrwt>
<pdfrwt beam="1">  1       21 0.91013256E-01 0.21137916E+03</pdfrwt>
<pdfrwt beam="2">  1       21 0.13698764E-01 0.21137916E+03</pdfrwt>
<totfact> 0.46896257E+04</totfact>
</mgrwt>
</event>
<event>
 4    1  0.4349106E+000  0.2051811E+03  0.7546771E-02  0.1145440E+00
         21   -1    0    0  501  502  0.00000000000E+00  0.00000000000E+00  0.15233966918E+03  0.15233966918E+03  0.00000000000E+00 0.  1.
         21   -1    0    0  502  503 -0.00000000000E+00 -0.00000000000E+00 -0.27791072316E+03  0.27791072316E+03  0.00000000000E+00 0. -1.
          6    1    1    2  501    0  0.10530667647E+03  0.32875168984E+02 -0.46671131763E+02  0.21042211715E+03  0.17300000000E+03 0. -1.
         -6    1    1    2    0  503 -0.10530667647E+03 -0.32875168984E+02 -0.78899922215E+02  0.21982827519E+03  0.17300000000E+03 0.  1.
<mgrwt>
<rscale>  2 0.20518107E+03</rscale>
<asrwt>0</asrwt>
<pdfrwt beam="1">  1       21 0.23436872E-01 0.20518107E+03</pdfrwt>
<pdfrwt beam="2">  1       21 0.42755495E-01 0.20518107E+03</pdfrwt>
<totfact> 0.89647108E+04</totfact>
</mgrwt>
</event>
<event>
 4    1  0.4349106E+000  0.2347494E+03  0.7546771E-02  0.1123341E+00
         21   -1    0    0  501  502  0.00000000000E+00  0.00000000000E+00  0.42075034560E+03  0.42075034560E+03  0.00000000000E+00 0. -1.
         21   -1    0    0  502  503 -0.00000000000E+00 -0.00000000000E+00 -0.14565659536E+03  0.14565659536E+03  0.00000000000E+00 0. -1.
          6    1    1    2  501    0 -0.12633768087E+03  0.96005508689E+02  0.22746309036E+03  0.32687417271E+03  0.17300000000E+03 0. -1.
         -6    1    1    2    0  503  0.12633768087E+03 -0.96005508689E+02  0.47630659870E+02  0.23953276825E+03  0.17300000000E+03 0. -1.
<mgrwt>
<rscale>  2 0.23474937E+03</rscale>
<asrwt>0</asrwt>
<pdfrwt beam="1">  1       21 0.64730822E-01 0.23474937E+03</pdfrwt>
<pdfrwt beam="2">  1       21 0.22408707E-01 0.23474937E+03</pdfrwt>
<totfact> 0.40169254E+04</totfact>
</mgrwt>
</event>
<event>
 4    1  0.4349106E+000  0.2716178E+03  0.7546771E-02  0.1100357E+00
         21   -1    0    0  503  502  0.00000000000E+00  0.00000000000E+00  0.91237945018E+03  0.91237945018E+03  0.00000000000E+00 0. -1.
         21   -1    0    0  501  503 -0.00000000000E+00 -0.00000000000E+00 -0.99018810061E+02  0.99018810061E+02  0.00000000000E+00 0. -1.
          6    1    1    2  501    0 -0.16740854709E+03 -0.12578394477E+03  0.19012888972E+03  0.33154972041E+03  0.17300000000E+03 0. -1.
         -6    1    1    2    0  502  0.16740854709E+03  0.12578394477E+03  0.62323175040E+03  0.67984853983E+03  0.17300000000E+03 0. -1.
<mgrwt>
<rscale>  2 0.27161779E+03</rscale>
<asrwt>0</asrwt>
<pdfrwt beam="1">  1       21 0.14036606E+00 0.27161779E+03</pdfrwt>
<pdfrwt beam="2">  1       21 0.15233664E-01 0.27161779E+03</pdfrwt>
<totfact> 0.12910793E+04</totfact>
</mgrwt>
</event>
<event>
 4    1  0.4349106E+000  0.2009670E+03  0.7546771E-02  0.1148926E+00
         21   -1    0    0  503  502  0.00000000000E+00  0.00000000000E+00  0.18409498043E+04  0.18409498043E+04  0.00000000000E+00 0.  1.
         21   -1    0    0  501  503 -0.00000000000E+00 -0.00000000000E+00 -0.42871173907E+02  0.42871173907E+02  0.00000000000E+00 0.  1.
          6    1    1    2  501    0 -0.83750593816E+02 -0.58690358314E+02  0.24086783739E+03  0.31369576856E+03  0.17300000000E+03 0.  1.
         -6    1    1    2    0  502  0.83750593816E+02  0.58690358314E+02  0.15572107930E+04  0.15701252096E+04  0.17300000000E+03 0.  1.
<mgrwt>
<rscale>  2 0.20096696E+03</rscale>
<asrwt>0</asrwt>
<pdfrwt beam="1">  1       21 0.28322299E+00 0.20096696E+03</pdfrwt>
<pdfrwt beam="2">  1       21 0.65955666E-02 0.20096696E+03</pdfrwt>
<totfact> 0.70839947E+03</totfact>
</mgrwt>
</event>
<event>
 4    1  0.4349106E+000  0.1949290E+03  0.7546771E-02  0.1154089E+00
         21   -1    0    0  501  502  0.00000000000E+00  0.00000000000E+00  0.10686228060E+04  0.10686228060E+04  0.00000000000E+00 0.  1.
         21   -1    0    0  502  503 -0.00000000000E+00 -0.00000000000E+00 -0.38979958856E+02  0.38979958856E+02  0.00000000000E+00 0.  1.
          6    1    1    2  501    0 -0.84993440692E+02 -0.29059253553E+02  0.67892427799E+03  0.70635366526E+03  0.17300000000E+03 0.  1.
         -6    1    1    2    0  503  0.84993440692E+02  0.29059253553E+02  0.35071856914E+03  0.40124909959E+03  0.17300000000E+03 0.  1.
<mgrwt>
<rscale>  2 0.19492903E+03</rscale>
<asrwt>0</asrwt>
<pdfrwt beam="1">  1       21 0.16440349E+00 0.19492903E+03</pdfrwt>
<pdfrwt beam="2">  1       21 0.59969176E-02 0.19492903E+03</pdfrwt>
<totfact> 0.46088126E+04</totfact>
</mgrwt>
</event>
<event>
 4    1  0.4349106E+000  0.2712645E+03  0.7546771E-02  0.1100558E+00
         21   -1    0    0  503  502  0.00000000000E+00  0.00000000000E+00  0.23888941307E+03  0.23888941307E+03  0.00000000000E+00 0. -1.
         21   -1    0    0  501  503 -0.00000000000E+00 -0.00000000000E+00 -0.32292046336E+03  0.32292046336E+03  0.00000000000E+00 0.  1.
          6    1    1    2  501    0  0.14541159916E+03  0.15003624874E+03 -0.10234203896E+03  0.28992809806E+03  0.17300000000E+03 0. -1.
         -6    1    1    2    0  502 -0.14541159916E+03 -0.15003624874E+03  0.18310988662E+02  0.27188177837E+03  0.17300000000E+03 0.  1.
<mgrwt>
<rscale>  2 0.27126446E+03</rscale>
<asrwt>0</asrwt>
<pdfrwt beam="1">  1       21 0.36752217E-01 0.27126446E+03</pdfrwt>
<pdfrwt beam="2">  1       21 0.49680071E-01 0.27126446E+03</pdfrwt>
<totfact> 0.26527745E+04</totfact>
</mgrwt>
</event>
<event>
 4    1  0.4349106E+000  0.3023486E+03  0.7546771E-02  0.1084072E+00
         21   -1    0    0  503  502  0.00000000000E+00  0.00000000000E+00  0.27235097382E+03  0.27235097382E+03  0.00000000000E+00 0. -1.
         21   -1    0    0  501  503 -0.00000000000E+00 -0.00000000000E+00 -0.34481760021E+03  0.34481760021E+03  0.00000000000E+00 0.  1.
          6    1    1    2  501    0  0.61653350843E+02  0.24017608743E+03  0.14081932576E+02  0.30267637746E+03  0.17300000000E+03 0. -1.
         -6    1    1    2    0  502 -0.61653350843E+02 -0.24017608743E+03 -0.86548558970E+02  0.31449219657E+03  0.17300000000E+03 0. -1.
<mgrwt>
<rscale>  2 0.30234862E+03</rscale>
<asrwt>0</asrwt>
<pdfrwt beam="1">  1       21 0.41900150E-01 0.30234862E+03</pdfrwt>
<pdfrwt beam="2">  1       21 0.53048862E-01 0.30234862E+03</pdfrwt>
<totfact> 0.17463137E+04</totfact>
</mgrwt>
</event>
<event>
 4    1  0.4349106E+000  0.1759229E+03  0.7546771E-02  0.1171808E+00
         21   -1    0    0  503  502  0.00000000000E+00  0.00000000000E+00  0.75186887698E+03  0.75186887698E+03  0.00000000000E+00 0. -1.
         21   -1    0    0  501  503 -0.00000000000E+00 -0.00000000000E+00 -0.11398154049E+03  0.11398154049E+03  0.00000000000E+00 0. -1.
          6    1    1    2  501    0  0.31438507921E+02 -0.56103955484E+01 -0.27089617871E+02  0.17799635871E+03  0.17300000000E+03 0. -1.
         -6    1    1    2    0  502 -0.31438507921E+02  0.56103955484E+01  0.66497695436E+03  0.68785405876E+03  0.17300000000E+03 0. -1.
<mgrwt>
<rscale>  2 0.17592287E+03</rscale>
<asrwt>0</asrwt>
<pdfrwt beam="1">  1       21 0.11567213E+00 0.17592287E+03</pdfrwt>
<pdfrwt beam="2">  1       21 0.17535622E-01 0.17592287E+03</pdfrwt>
<totfact> 0.17218683E+04</totfact>
</mgrwt>
</event>
<event>
 4    1  0.4349106E+000  0.1763974E+03  0.7546771E-02  0.1171336E+00
         21   -1    0    0  501  502  0.00000000000E+00  0.00000000000E+00  0.43038960752E+03  0.43038960752E+03  0.00000000000E+00 0.  1.
         21   -1    0    0  502  503 -0.00000000000E+00 -0.00000000000E+00 -0.12891038695E+03  0.12891038695E+03  0.00000000000E+00 0.  1.
          6    1    1    2  501    0 -0.30327028773E+02 -0.16349852097E+02  0.33606244183E+03  0.37954447848E+03  0.17300000000E+03 0.  1.
         -6    1    1    2    0  503  0.30327028773E+02  0.16349852097E+02 -0.34583221253E+02  0.17975551599E+03  0.17300000000E+03 0.  1.
<mgrwt>
<rscale>  2 0.17639741E+03</rscale>
<asrwt>0</asrwt>
<pdfrwt beam="1">  1       21 0.66213785E-01 0.17639741E+03</pdfrwt>
<pdfrwt beam="2">  1       21 0.19832367E-01 0.17639741E+03</pdfrwt>
<totfact> 0.49472064E+04</totfact>
</mgrwt>
</event>
<event>
 4    1  0.4349106E+000  0.1830109E+03  0.7546771E-02  0.1164920E+00
         21   -1    0    0  501  502  0.00000000000E+00  0.00000000000E+00  0.15656250646E+03  0.15656250646E+03  0.00000000000E+00 0.  1.
         21   -1    0    0  502  503 -0.00000000000E+00 -0.00000000000E+00 -0.24837734003E+03  0.24837734003E+03  0.00000000000E+00 0.  1.
          6    1    1    2  501    0  0.92436233083E+01 -0.58979330328E+02  0.29497371900E+02  0.18537286999E+03  0.17300000000E+03 0.  1.
         -6    1    1    2    0  503 -0.92436233083E+01  0.58979330328E+02 -0.12131220547E+03  0.21956697651E+03  0.17300000000E+03 0.  1.
<mgrwt>
<rscale>  2 0.18301094E+03</rscale>
<asrwt>0</asrwt>
<pdfrwt beam="1">  1       21 0.24086540E-01 0.18301094E+03</pdfrwt>
<pdfrwt beam="2">  1       21 0.38211898E-01 0.18301094E+03</pdfrwt>
<totfact> 0.10776784E+05</totfact>
</mgrwt>
</event>
<event>
 4    1  0.4349106E+000  0.2306395E+03  0.7546771E-02  0.1126190E+00
         21   -1    0    0  503  502  0.00000000000E+00  0.00000000000E+00  0.11099558909E+03  0.11099558909E+03  0.00000000000E+00 0. -1.
         21   -1    0    0  501  503 -0.00000000000E+00 -0.00000000000E+00 -0.50492750844E+03  0.50492750844E+03  0.00000000000E+00 0. -1.
          6    1    1    2  501    0  0.52375162815E+02  0.14325650303E+03 -0.26641439041E+03  0.35237935632E+03  0.17300000000E+03 0. -1.
         -6    1    1    2    0  502 -0.52375162815E+02 -0.14325650303E+03 -0.12751752894E+03  0.26354374121E+03  0.17300000000E+03 0. -1.
<mgrwt>
<rscale>  2 0.23063951E+03</rscale>
<asrwt>0</asrwt>
<pdfrwt beam="1">  1       21 0.17076244E-01 0.23063951E+03</pdfrwt>
<pdfrwt beam="2">  1       21 0.77681156E-01 0.23063951E+03</pdfrwt>
<totfact> 0.44639503E+04</totfact>
</mgrwt>
</event>
<event>
 4    1  0.4349106E+000  0.2063022E+03  0.7546771E-02  0.1144528E+00
         21   -1    0    0  501  502  0.00000000000E+00  0.00000000000E+00  0.17854021134E+03  0.17854021134E+03  0.00000000000E+00 0. -1.
         21   -1    0    0  502  503 -0.00000000000E+00 -0.00000000000E+00 -0.30096474954E+03  0.30096474954E+03  0.00000000000E+00 0.  1.
          6    1    1    2  501    0 -0.67260736281E+02 -0.90042184547E+02  0.48116872049E+02  0.21183917253E+03  0.17300000000E+03 0. -1.
         -6    1    1    2    0  503  0.67260736281E+02  0.90042184547E+02 -0.17054141025E+03  0.26766578835E+03  0.17300000000E+03 0.  1.
<mgrwt>
<rscale>  2 0.20630221E+03</rscale>
<asrwt>0</asrwt>
<pdfrwt beam="1">  1       21 0.27467725E-01 0.20630221E+03</pdfrwt>
<pdfrwt beam="2">  1       21 0.46302269E-01 0.20630221E+03</pdfrwt>
<totfact> 0.56135141E+04</totfact>
</mgrwt>
</event>
<event>
 4    1  0.4349106E+000  0.2261664E+03  0.7546771E-02  0.1129368E+00
         21   -1    0    0  503  502  0.00000000000E+00  0.00000000000E+00  0.88218767195E+02  0.88218767195E+02  0.00000000000E+00 0. -1.
         21   -1    0    0  501  503 -0.00000000000E+00 -0.00000000000E+00 -0.24824456833E+04  0.24824456833E+04  0.00000000000E+00 0. -1.
          6    1    1    2  501    0  0.10130363287E+03  0.10468902710E+03 -0.23223709699E+04  0.23333576966E+04  0.17300000000E+03 0. -1.
         -6    1    1    2    0  502 -0.10130363287E+03 -0.10468902710E+03 -0.71855946167E+02  0.23730675386E+03  0.17300000000E+03 0. -1.
<mgrwt>
<rscale>  2 0.22616635E+03</rscale>
<asrwt>0</asrwt>
<pdfrwt beam="1">  1       21 0.13572122E-01 0.22616635E+03</pdfrwt>
<pdfrwt beam="2">  1       21 0.38191462E+00 0.22616635E+03</pdfrwt>
<totfact> 0.50375465E+02</totfact>
</mgrwt>
</event>
<event>
 4    1  0.4349106E+000  0.1860686E+03  0.7546771E-02  0.1162056E+00
         21   -1    0    0  501  502  0.00000000000E+00  0.00000000000E+00  0.93081686312E+02  0.93081686312E+02  0.00000000000E+00 0.  1.
         21   -1    0    0  502  503 -0.00000000000E+00 -0.00000000000E+00 -0.37393651312E+03  0.37393651312E+03  0.00000000000E+00 0.  1.
          6    1    1    2  501    0  0.65790928159E+02  0.19081193893E+02 -0.12339879119E+03  0.22326844796E+03  0.17300000000E+03 0.  1.
         -6    1    1    2    0  503 -0.65790928159E+02 -0.19081193893E+02 -0.15745603561E+03  0.24374975147E+03  0.17300000000E+03 0.  1.
<mgrwt>
<rscale>  2 0.18606864E+03</rscale>
<asrwt>0</asrwt>
<pdfrwt beam="1">  1       21 0.14320259E-01 0.18606864E+03</pdfrwt>
<pdfrwt beam="2">  1       21 0.57528695E-01 0.18606864E+03</pdfrwt>
<totfact> 0.12128583E+05</totfact>
</mgrwt>
</event>
<event>
 4    1  0.4349106E+000  0.2007945E+03  0.7546771E-02  0.1149070E+00
         21   -1    0    0  501  502  0.00000000000E+00  0.00000000000E+00  0.67540713455E+03  0.67540713455E+03  0.00000000000E+00 0. -1.
         21   -1    0    0  502  503 -0.00000000000E+00 -0.00000000000E+00 -0.11542986996E+03  0.11542986996E+03  0.00000000000E+00 0. -1.
          6    1    1    2  501    0  0.81352479638E+02 -0.61410235331E+02  0.55475356132E+03  0.58997453907E+03  0.17300000000E+03 0. -1.
         -6    1    1    2    0  503 -0.81352479638E+02  0.61410235331E+02  0.52237032644E+01  0.20086246544E+03  0.17300000000E+03 0. -1.
<mgrwt>
<rscale>  2 0.20079453E+03</rscale>
<asrwt>0</asrwt>
<pdfrwt beam="1">  1       21 0.10390879E+00 0.20079453E+03</pdfrwt>
<pdfrwt beam="2">  1       21 0.17758442E-01 0.20079453E+03</pdfrwt>
<totfact> 0.21456541E+04</totfact>
</mgrwt>
</event>
<event>
 4    1  0.4349106E+000  0.2020645E+03  0.7546771E-02  0.1148009E+00
         21   -1    0    0  501  502  0.00000000000E+00  0.00000000000E+00  0.23133218319E+03  0.23133218319E+03  0.00000000000E+00 0.  1.
         21   -1    0    0  502  503 -0.00000000000E+00 -0.00000000000E+00 -0.30926919163E+03  0.30926919163E+03  0.00000000000E+00 0.  1.
          6    1    1    2  501    0 -0.23983589357E+02 -0.10161627360E+03  0.13813527743E+03  0.24476812392E+03  0.17300000000E+03 0.  1.
         -6    1    1    2    0  503  0.23983589357E+02  0.10161627360E+03 -0.21607228586E+03  0.29583325090E+03  0.17300000000E+03 0.  1.
<mgrwt>
<rscale>  2 0.20206454E+03</rscale>
<asrwt>0</asrwt>
<pdfrwt beam="1">  1       21 0.35589567E-01 0.20206454E+03</pdfrwt>
<pdfrwt beam="2">  1       21 0.47579876E-01 0.20206454E+03</pdfrwt>
<totfact> 0.31992119E+04</totfact>
</mgrwt>
</event>
<event>
 4    1  0.4349106E+000  0.2616579E+03  0.7546771E-02  0.1106151E+00
         21   -1    0    0  501  502  0.00000000000E+00  0.00000000000E+00  0.76819257601E+03  0.76819257601E+03  0.00000000000E+00 0. -1.
         21   -1    0    0  502  503 -0.00000000000E+00 -0.00000000000E+00 -0.22470220858E+03  0.22470220858E+03  0.00000000000E+00 0. -1.
          6    1    1    2  501    0  0.40069981727E+02 -0.19217246059E+03  0.65736872960E+03  0.70752986135E+03  0.17300000000E+03 0. -1.
         -6    1    1    2    0  503 -0.40069981727E+02  0.19217246059E+03 -0.11387836217E+03  0.28536492324E+03  0.17300000000E+03 0. -1.
<mgrwt>
<rscale>  2 0.26165790E+03</rscale>
<asrwt>0</asrwt>
<pdfrwt beam="1">  1       21 0.11818347E+00 0.26165790E+03</pdfrwt>
<pdfrwt beam="2">  1       21 0.34569571E-01 0.26165790E+03</pdfrwt>
<totfact> 0.42068751E+03</totfact>
</mgrwt>
</event>
<event>
 4    1  0.4349106E+000  0.2423027E+03  0.7546771E-02  0.1118268E+00
         21   -1    0    0  503  502  0.00000000000E+00  0.00000000000E+00  0.10588226127E+03  0.10588226127E+03  0.00000000000E+00 0. -1.
         21   -1    0    0  501  503 -0.00000000000E+00 -0.00000000000E+00 -0.56809039583E+03  0.56809039583E+03  0.00000000000E+00 0.  1.
          6    1    1    2  501    0 -0.11833929808E+03  0.12156232700E+03 -0.28324626355E+03  0.37274526775E+03  0.17300000000E+03 0.  1.
         -6    1    1    2    0  502  0.11833929808E+03 -0.12156232700E+03 -0.17896187102E+03  0.30122738935E+03  0.17300000000E+03 0. -1.
<mgrwt>
<rscale>  2 0.24230268E+03</rscale>
<asrwt>0</asrwt>
<pdfrwt beam="1">  1       21 0.16289579E-01 0.24230268E+03</pdfrwt>
<pdfrwt beam="2">  1       21 0.87398521E-01 0.24230268E+03</pdfrwt>
<totfact> 0.37001477E+04</totfact>
</mgrwt>
</event>
<event>
 4    1  0.4349106E+000  0.2408868E+03  0.7546771E-02  0.1119203E+00
         21   -1    0    0  501  502  0.00000000000E+00  0.00000000000E+00  0.34443477059E+03  0.34443477059E+03  0.00000000000E+00 0.  1.
         21   -1    0    0  502  503 -0.00000000000E+00 -0.00000000000E+00 -0.20410193348E+03  0.20410193348E+03  0.00000000000E+00 0.  1.
          6    1    1    2  501    0 -0.14622458641E+03 -0.81950218757E+02  0.18476518199E+03  0.30358629828E+03  0.17300000000E+03 0.  1.
         -6    1    1    2    0  503  0.14622458641E+03  0.81950218757E+02 -0.44432344887E+02  0.24495040579E+03  0.17300000000E+03 0.  1.
<mgrwt>
<rscale>  2 0.24088684E+03</rscale>
<asrwt>0</asrwt>
<pdfrwt beam="1">  1       21 0.52989964E-01 0.24088684E+03</pdfrwt>
<pdfrwt beam="2">  1       21 0.31400298E-01 0.24088684E+03</pdfrwt>
<totfact> 0.32098931E+04</totfact>
</mgrwt>
</event>
<event>
 4    1  0.4349106E+000  0.1793027E+03  0.7546771E-02  0.1168480E+00
         21   -1    0    0  501  502  0.00000000000E+00  0.00000000000E+00  0.14716572581E+04  0.14716572581E+04  0.00000000000E+00 0.  1.
         21   -1    0    0  502  503 -0.00000000000E+00 -0.00000000000E+00 -0.22163132475E+02  0.22163132475E+02  0.00000000000E+00 0.  1.
          6    1    1    2  501    0 -0.39757136088E+02  0.25294681740E+02  0.81412842338E+03  0.83363933482E+03  0.17300000000E+03 0.  1.
         -6    1    1    2    0  503  0.39757136088E+02 -0.25294681740E+02  0.63536570222E+03  0.66018105573E+03  0.17300000000E+03 0.  1.
<mgrwt>
<rscale>  2 0.17930268E+03</rscale>
<asrwt>0</asrwt>
<pdfrwt beam="1">  1       21 0.22640873E+00 0.17930268E+03</pdfrwt>
<pdfrwt beam="2">  1       21 0.34097138E-02 0.17930268E+03</pdfrwt>
<totfact> 0.47499235E+04</totfact>
</mgrwt>
</event>
<event>
 4    1  0.4349106E+000  0.2080238E+03  0.7546771E-02  0.1143141E+00
         21   -1    0    0  503  502  0.00000000000E+00  0.00000000000E+00  0.39792834279E+03  0.39792834279E+03  0.00000000000E+00 0. -1.
         21   -1    0    0  501  503 -0.00000000000E+00 -0.00000000000E+00 -0.59346632851E+03  0.59346632851E+03  0.00000000000E+00 0. -1.
          6    1    1    2  501    0 -0.20307554183E+02 -0.11372118768E+03 -0.54575378459E+03  0.58405573251E+03  0.17300000000E+03 0. -1.
         -6    1    1    2    0  502  0.20307554183E+02  0.11372118768E+03  0.35021579886E+03  0.40733893880E+03  0.17300000000E+03 0. -1.
<mgrwt>
<rscale>  2 0.20802381E+03</rscale>
<asrwt>0</asrwt>
<pdfrwt beam="1">  1       21 0.61219746E-01 0.20802381E+03</pdfrwt>
<pdfrwt beam="2">  1       21 0.91302511E-01 0.20802381E+03</pdfrwt>
<totfact> 0.24882397E+03</totfact>
</mgrwt>
</event>
<event>
 4    1  0.4349106E+000  0.2006866E+03  0.7546771E-02  0.1149161E+00
         21   -1    0    0  503  502  0.00000000000E+00  0.00000000000E+00  0.10682007825E+03  0.10682007825E+03  0.00000000000E+00 0. -1.
         21   -1    0    0  501  503 -0.00000000000E+00 -0.00000000000E+00 -0.37704342260E+03  0.37704342260E+03  0.00000000000E+00 0. -1.
          6    1    1    2  501    0  0.10093897870E+03  0.12547701529E+02 -0.13411344747E+03  0.24137427168E+03  0.17300000000E+03 0. -1.
         -6    1    1    2    0  502 -0.10093897870E+03 -0.12547701529E+02 -0.13610989688E+03  0.24248922917E+03  0.17300000000E+03 0. -1.
<mgrwt>
<rscale>  2 0.20068663E+03</rscale>
<asrwt>0</asrwt>
<pdfrwt beam="1">  1       21 0.16433858E-01 0.20068663E+03</pdfrwt>
<pdfrwt beam="2">  1       21 0.58006681E-01 0.20068663E+03</pdfrwt>
<totfact> 0.92172104E+04</totfact>
</mgrwt>
</event>
<event>
 4    1  0.4349106E+000  0.2286823E+03  0.7546771E-02  0.1127571E+00
         21   -1    0    0  501  502  0.00000000000E+00  0.00000000000E+00  0.11589305628E+04  0.11589305628E+04  0.00000000000E+00 0. -1.
         21   -1    0    0  502  503 -0.00000000000E+00 -0.00000000000E+00 -0.22618754577E+03  0.22618754577E+03  0.00000000000E+00 0.  1.
          6    1    1    2  501    0 -0.87227173928E+02  0.12148264904E+03  0.10860093687E+04  0.11098251947E+04  0.17300000000E+03 0. -1.
         -6    1    1    2    0  503  0.87227173928E+02 -0.12148264904E+03 -0.15326635165E+03  0.27529291389E+03  0.17300000000E+03 0.  1.
<mgrwt>
<rscale>  2 0.22868234E+03</rscale>
<asrwt>0</asrwt>
<pdfrwt beam="1">  1       21 0.17829701E+00 0.22868234E+03</pdfrwt>
<pdfrwt beam="2">  1       21 0.34798085E-01 0.22868234E+03</pdfrwt>
<totfact> 0.14362249E+03</totfact>
</mgrwt>
</event>
<event>
 4    1  0.4349106E+000  0.1804555E+03  0.7546771E-02  0.1167363E+00
         21   -1    0    0  503  502  0.00000000000E+00  0.00000000000E+00  0.27303253611E+04  0.27303253611E+04  0.00000000000E+00 0. -1.
         21   -1    0    0  501  503 -0.00000000000E+00 -0.00000000000E+00 -0.28205446003E+02  0.28205446003E+02  0.00000000000E+00 0.  1.
          6    1    1    2  501    0 -0.15582736074E+01  0.51310251484E+02  0.30323223863E+03  0.35286535771E+03  0.17300000000E+03 0.  1.
         -6    1    1    2    0  502  0.15582736074E+01 -0.51310251484E+02  0.23988876764E+04  0.24056654494E+04  0.17300000000E+03 0. -1.
<mgrwt>
<rscale>  2 0.18045545E+03</rscale>
<asrwt>0</asrwt>
<pdfrwt beam="1">  1       21 0.42004985E+00 0.18045545E+03</pdfrwt>
<pdfrwt beam="2">  1       21 0.43393015E-02 0.18045545E+03</pdfrwt>
<totfact> 0.22687040E+03</totfact>
</mgrwt>
</event>
<event>
 4    1  0.4349106E+000  0.2193058E+03  0.7546771E-02  0.1134402E+00
         21   -1    0    0  501  502  0.00000000000E+00  0.00000000000E+00  0.54664289574E+03  0.54664289574E+03  0.00000000000E+00 0.  1.
         21   -1    0    0  502  503 -0.00000000000E+00 -0.00000000000E+00 -0.88266439235E+02  0.88266439235E+02  0.00000000000E+00 0.  1.
          6    1    1    2  501    0 -0.12947334251E+03 -0.37452717623E+02  0.21118563010E+03  0.30445758791E+03  0.17300000000E+03 0.  1.
         -6    1    1    2    0  503  0.12947334251E+03  0.37452717623E+02  0.24719082641E+03  0.33045174706E+03  0.17300000000E+03 0.  1.
<mgrwt>
<rscale>  2 0.21930584E+03</rscale>
<asrwt>0</asrwt>
<pdfrwt beam="1">  1       21 0.84098905E-01 0.21930584E+03</pdfrwt>
<pdfrwt beam="2">  1       21 0.13579453E-01 0.21930584E+03</pdfrwt>
<totfact> 0.56965876E+04</totfact>
</mgrwt>
</event>
